
The number of threads in each node for OpenMP parallelization is 1.


*******************************************************
*******************************************************
 Welcome to OpenMX   Ver. 3.822                           
 Copyright (C), 2002-2014, T. Ozaki                    
 OpenMX comes with ABSOLUTELY NO WARRANTY.             
 This is free software, and you are welcome to         
 redistribute it under the constitution of the GNU-GPL.
*******************************************************
*******************************************************



<Input_std>  Your input file was normally read.
<Input_std>  The system includes 2 species and 36 atoms.

*******************************************************
                     PAO and VPS                       
*******************************************************

<SetPara_DFT>  PAOs of species Mo were normally found.
<SetPara_DFT>  PAOs of species Se were normally found.
<SetPara_DFT>  VPSs of species Mo were normally found.
               Mo_CA13.vps is j-dependent.
<SetPara_DFT>  VPSs of species Se were normally found.
               Se_CA13.vps is j-dependent.

*******************************************************
     Fourier transform of PAO and projectors of VNL    
*******************************************************

<FT_PAO>          Fourier transform of pseudo atomic orbitals
<FT_NLP>          Fourier transform of non-local projectors
<FT_ProExpn_VNA>  Fourier transform of VNA separable projectors
<FT_VNA>          Fourier transform of VNA potentials
<FT_ProductPAO>   Fourier transform of product of PAOs

*******************************************************
  Allocation of atoms to proccesors at MD_iter=    1     
*******************************************************

 proc =   0  # of atoms=   1  estimated weight=         1.00000
 proc =   1  # of atoms=   2  estimated weight=         2.00000
 proc =   2  # of atoms=   1  estimated weight=         1.00000
 proc =   3  # of atoms=   1  estimated weight=         1.00000
 proc =   4  # of atoms=   2  estimated weight=         2.00000
 proc =   5  # of atoms=   2  estimated weight=         2.00000
 proc =   6  # of atoms=   1  estimated weight=         1.00000
 proc =   7  # of atoms=   2  estimated weight=         2.00000
 proc =   8  # of atoms=   1  estimated weight=         1.00000
 proc =   9  # of atoms=   1  estimated weight=         1.00000
 proc =  10  # of atoms=   2  estimated weight=         2.00000
 proc =  11  # of atoms=   2  estimated weight=         2.00000
 proc =  12  # of atoms=   1  estimated weight=         1.00000
 proc =  13  # of atoms=   2  estimated weight=         2.00000
 proc =  14  # of atoms=   1  estimated weight=         1.00000
 proc =  15  # of atoms=   1  estimated weight=         1.00000
 proc =  16  # of atoms=   2  estimated weight=         2.00000
 proc =  17  # of atoms=   2  estimated weight=         2.00000
 proc =  18  # of atoms=   1  estimated weight=         1.00000
 proc =  19  # of atoms=   2  estimated weight=         2.00000
 proc =  20  # of atoms=   1  estimated weight=         1.00000
 proc =  21  # of atoms=   1  estimated weight=         1.00000
 proc =  22  # of atoms=   2  estimated weight=         2.00000
 proc =  23  # of atoms=   2  estimated weight=         2.00000




*******************************************************
        Analysis of neighbors and setting of grids        
*******************************************************

TFNAN=    1416   Average FNAN=  39.33333
TSNAN=       0   Average SNAN=   0.00000
<truncation> CpyCell= 1 ct_AN=   1 FNAN SNAN  40   0
<truncation> CpyCell= 1 ct_AN=   2 FNAN SNAN  40   0
<truncation> CpyCell= 1 ct_AN=   3 FNAN SNAN  40   0
<truncation> CpyCell= 1 ct_AN=   4 FNAN SNAN  40   0
<truncation> CpyCell= 1 ct_AN=   5 FNAN SNAN  40   0
<truncation> CpyCell= 1 ct_AN=   6 FNAN SNAN  40   0
<truncation> CpyCell= 1 ct_AN=   7 FNAN SNAN  40   0
<truncation> CpyCell= 1 ct_AN=   8 FNAN SNAN  40   0
<truncation> CpyCell= 1 ct_AN=   9 FNAN SNAN  40   0
<truncation> CpyCell= 1 ct_AN=  10 FNAN SNAN  40   0
<truncation> CpyCell= 1 ct_AN=  11 FNAN SNAN  40   0
<truncation> CpyCell= 1 ct_AN=  12 FNAN SNAN  40   0
<truncation> CpyCell= 1 ct_AN=  13 FNAN SNAN  39   0
<truncation> CpyCell= 1 ct_AN=  14 FNAN SNAN  39   0
<truncation> CpyCell= 1 ct_AN=  15 FNAN SNAN  39   0
<truncation> CpyCell= 1 ct_AN=  16 FNAN SNAN  39   0
<truncation> CpyCell= 1 ct_AN=  17 FNAN SNAN  39   0
<truncation> CpyCell= 1 ct_AN=  18 FNAN SNAN  39   0
<truncation> CpyCell= 1 ct_AN=  19 FNAN SNAN  39   0
<truncation> CpyCell= 1 ct_AN=  20 FNAN SNAN  39   0
     ..........
     ......

TFNAN=    2064   Average FNAN=  57.33333
TSNAN=       0   Average SNAN=   0.00000
<truncation> CpyCell= 2 ct_AN=   1 FNAN SNAN  58   0
<truncation> CpyCell= 2 ct_AN=   2 FNAN SNAN  58   0
<truncation> CpyCell= 2 ct_AN=   3 FNAN SNAN  58   0
<truncation> CpyCell= 2 ct_AN=   4 FNAN SNAN  58   0
<truncation> CpyCell= 2 ct_AN=   5 FNAN SNAN  58   0
<truncation> CpyCell= 2 ct_AN=   6 FNAN SNAN  58   0
<truncation> CpyCell= 2 ct_AN=   7 FNAN SNAN  58   0
<truncation> CpyCell= 2 ct_AN=   8 FNAN SNAN  58   0
<truncation> CpyCell= 2 ct_AN=   9 FNAN SNAN  58   0
<truncation> CpyCell= 2 ct_AN=  10 FNAN SNAN  58   0
<truncation> CpyCell= 2 ct_AN=  11 FNAN SNAN  58   0
<truncation> CpyCell= 2 ct_AN=  12 FNAN SNAN  58   0
<truncation> CpyCell= 2 ct_AN=  13 FNAN SNAN  57   0
<truncation> CpyCell= 2 ct_AN=  14 FNAN SNAN  57   0
<truncation> CpyCell= 2 ct_AN=  15 FNAN SNAN  57   0
<truncation> CpyCell= 2 ct_AN=  16 FNAN SNAN  57   0
<truncation> CpyCell= 2 ct_AN=  17 FNAN SNAN  57   0
<truncation> CpyCell= 2 ct_AN=  18 FNAN SNAN  57   0
<truncation> CpyCell= 2 ct_AN=  19 FNAN SNAN  57   0
<truncation> CpyCell= 2 ct_AN=  20 FNAN SNAN  57   0
     ..........
     ......

TFNAN=    2112   Average FNAN=  58.66667
TSNAN=       0   Average SNAN=   0.00000
<truncation> CpyCell= 3 ct_AN=   1 FNAN SNAN  60   0
<truncation> CpyCell= 3 ct_AN=   2 FNAN SNAN  60   0
<truncation> CpyCell= 3 ct_AN=   3 FNAN SNAN  60   0
<truncation> CpyCell= 3 ct_AN=   4 FNAN SNAN  60   0
<truncation> CpyCell= 3 ct_AN=   5 FNAN SNAN  60   0
<truncation> CpyCell= 3 ct_AN=   6 FNAN SNAN  60   0
<truncation> CpyCell= 3 ct_AN=   7 FNAN SNAN  60   0
<truncation> CpyCell= 3 ct_AN=   8 FNAN SNAN  60   0
<truncation> CpyCell= 3 ct_AN=   9 FNAN SNAN  60   0
<truncation> CpyCell= 3 ct_AN=  10 FNAN SNAN  60   0
<truncation> CpyCell= 3 ct_AN=  11 FNAN SNAN  60   0
<truncation> CpyCell= 3 ct_AN=  12 FNAN SNAN  60   0
<truncation> CpyCell= 3 ct_AN=  13 FNAN SNAN  58   0
<truncation> CpyCell= 3 ct_AN=  14 FNAN SNAN  58   0
<truncation> CpyCell= 3 ct_AN=  15 FNAN SNAN  58   0
<truncation> CpyCell= 3 ct_AN=  16 FNAN SNAN  58   0
<truncation> CpyCell= 3 ct_AN=  17 FNAN SNAN  58   0
<truncation> CpyCell= 3 ct_AN=  18 FNAN SNAN  58   0
<truncation> CpyCell= 3 ct_AN=  19 FNAN SNAN  58   0
<truncation> CpyCell= 3 ct_AN=  20 FNAN SNAN  58   0
     ..........
     ......

TFNAN=    2112   Average FNAN=  58.66667
TSNAN=       0   Average SNAN=   0.00000
<truncation> CpyCell= 4 ct_AN=   1 FNAN SNAN  60   0
<truncation> CpyCell= 4 ct_AN=   2 FNAN SNAN  60   0
<truncation> CpyCell= 4 ct_AN=   3 FNAN SNAN  60   0
<truncation> CpyCell= 4 ct_AN=   4 FNAN SNAN  60   0
<truncation> CpyCell= 4 ct_AN=   5 FNAN SNAN  60   0
<truncation> CpyCell= 4 ct_AN=   6 FNAN SNAN  60   0
<truncation> CpyCell= 4 ct_AN=   7 FNAN SNAN  60   0
<truncation> CpyCell= 4 ct_AN=   8 FNAN SNAN  60   0
<truncation> CpyCell= 4 ct_AN=   9 FNAN SNAN  60   0
<truncation> CpyCell= 4 ct_AN=  10 FNAN SNAN  60   0
<truncation> CpyCell= 4 ct_AN=  11 FNAN SNAN  60   0
<truncation> CpyCell= 4 ct_AN=  12 FNAN SNAN  60   0
<truncation> CpyCell= 4 ct_AN=  13 FNAN SNAN  58   0
<truncation> CpyCell= 4 ct_AN=  14 FNAN SNAN  58   0
<truncation> CpyCell= 4 ct_AN=  15 FNAN SNAN  58   0
<truncation> CpyCell= 4 ct_AN=  16 FNAN SNAN  58   0
<truncation> CpyCell= 4 ct_AN=  17 FNAN SNAN  58   0
<truncation> CpyCell= 4 ct_AN=  18 FNAN SNAN  58   0
<truncation> CpyCell= 4 ct_AN=  19 FNAN SNAN  58   0
<truncation> CpyCell= 4 ct_AN=  20 FNAN SNAN  58   0
     ..........
     ......

TFNAN=    2112   Average FNAN=  58.66667
TSNAN=       0   Average SNAN=   0.00000
<truncation> CpyCell= 4 ct_AN=   1 FNAN SNAN  60   0
<truncation> CpyCell= 4 ct_AN=   2 FNAN SNAN  60   0
<truncation> CpyCell= 4 ct_AN=   3 FNAN SNAN  60   0
<truncation> CpyCell= 4 ct_AN=   4 FNAN SNAN  60   0
<truncation> CpyCell= 4 ct_AN=   5 FNAN SNAN  60   0
<truncation> CpyCell= 4 ct_AN=   6 FNAN SNAN  60   0
<truncation> CpyCell= 4 ct_AN=   7 FNAN SNAN  60   0
<truncation> CpyCell= 4 ct_AN=   8 FNAN SNAN  60   0
<truncation> CpyCell= 4 ct_AN=   9 FNAN SNAN  60   0
<truncation> CpyCell= 4 ct_AN=  10 FNAN SNAN  60   0
<truncation> CpyCell= 4 ct_AN=  11 FNAN SNAN  60   0
<truncation> CpyCell= 4 ct_AN=  12 FNAN SNAN  60   0
<truncation> CpyCell= 4 ct_AN=  13 FNAN SNAN  58   0
<truncation> CpyCell= 4 ct_AN=  14 FNAN SNAN  58   0
<truncation> CpyCell= 4 ct_AN=  15 FNAN SNAN  58   0
<truncation> CpyCell= 4 ct_AN=  16 FNAN SNAN  58   0
<truncation> CpyCell= 4 ct_AN=  17 FNAN SNAN  58   0
<truncation> CpyCell= 4 ct_AN=  18 FNAN SNAN  58   0
<truncation> CpyCell= 4 ct_AN=  19 FNAN SNAN  58   0
<truncation> CpyCell= 4 ct_AN=  20 FNAN SNAN  58   0
     ..........
     ......

<Check_System> The system is slab.
lattice vectors (bohr)
A  = 28.148734007648, 37.920584703746,  0.000000000000
B  = 37.531645342901, 65.006716634184,  0.000000000000
C  =  0.000000000000,  0.000000000000, 49.835766847187
reciprocal lattice vectors (bohr^-1)
RA =  1.004462007925, -0.579926410590,  0.000000000000
RB = -0.585936171297,  0.434944807949,  0.000000000000
RC =  0.000000000000,  0.000000000000,  0.126077829332
Grid_Origin  0.000000000000  0.000000000000  0.000000000000
Cell_Volume =  20264.959025843582 (Bohr^3)
GridVol     =      0.094238090708 (Bohr^3)
Grid_Origin  0.000000000000  0.000000000000  0.000000000000
Cell_Volume =  20264.959025843582 (Bohr^3)
GridVol     =      0.094238090708 (Bohr^3)
<UCell_Box> Info. of cutoff energy and num. of grids
lattice vectors (bohr)
A  = 28.148734007648, 37.920584703746,  0.000000000000
B  = 37.531645342901, 65.006716634184,  0.000000000000
C  =  0.000000000000,  0.000000000000, 49.835766847187
reciprocal lattice vectors (bohr^-1)
RA =  1.004462007925, -0.579926410590,  0.000000000000
RB = -0.585936171297,  0.434944807949,  0.000000000000
RC =  0.000000000000,  0.000000000000,  0.126077829332
Required cutoff energy (Ryd) for 3D-grids = 200.0000
    Used cutoff energy (Ryd) for 3D-grids = 193.7172, 212.9993, 199.3946
Num. of grids of a-, b-, and c-axes = 24, 40, 224
Grid_Origin  0.000000000000  0.000000000000  0.000000000000
Cell_Volume =  20264.959025843582 (Bohr^3)
GridVol     =      0.094238090708 (Bohr^3)
Cell vectors (bohr) of the grid cell (gtv)
  gtv_a =  1.172863916985,  1.580024362656,  0.000000000000
  gtv_b =  0.938291133573,  1.625167915855,  0.000000000000
  gtv_c =  0.000000000000,  0.000000000000,  0.222481101996
  |gtv_a| =  1.967761864239
  |gtv_b| =  1.876582267332
  |gtv_c| =  0.222481101996
Num. of grids overlapping with atom    1 = 15079
Num. of grids overlapping with atom    2 = 15336
Num. of grids overlapping with atom    3 = 15336
Num. of grids overlapping with atom    4 = 15079
Num. of grids overlapping with atom    5 = 15336
Num. of grids overlapping with atom    6 = 15336
Num. of grids overlapping with atom    7 = 15079
Num. of grids overlapping with atom    8 = 15336
Num. of grids overlapping with atom    9 = 15336
Num. of grids overlapping with atom   10 = 15079
Num. of grids overlapping with atom   11 = 15336
Num. of grids overlapping with atom   12 = 15336
Num. of grids overlapping with atom   13 = 22898
Num. of grids overlapping with atom   14 = 22708
Num. of grids overlapping with atom   15 = 22708
Num. of grids overlapping with atom   16 = 22898
Num. of grids overlapping with atom   17 = 22708
Num. of grids overlapping with atom   18 = 22708
Num. of grids overlapping with atom   19 = 22898
Num. of grids overlapping with atom   20 = 22708
     ..........
     ......


*******************************************************
             SCF calculation at MD = 1                
*******************************************************

<MD= 1>  Calculation of the overlap matrix
<MD= 1>  Calculation of the nonlocal matrix
<MD= 1>  Calculation of the VNA projector matrix

******************* MD= 1  SCF= 1 *******************
<Band>  Solving the eigenvalue problem...
 KGrids1:  -0.45000  -0.35000  -0.25000  -0.15000  -0.05000   0.05000   0.15000   0.25000   0.35000   0.45000 
 KGrids2:  -0.45000  -0.35000  -0.25000  -0.15000  -0.05000   0.05000   0.15000   0.25000   0.35000   0.45000 
 KGrids3:   0.00000 
<Band_DFT>  Eigen, time=28.009891
<Band_DFT>  DM, time=50.315912
    1   Mo  MulP 7.31 7.31 sum 14.62 diff  0.00 (180.00   1.25)  Ml 0.00 (180.00   0.00)  Ml+s 0.00 (180.00   1.24)
    2   Mo  MulP 6.47 6.47 sum 12.95 diff  0.00 (  0.00 -88.59)  Ml 0.00 (  0.00   0.00)  Ml+s 0.00 (  0.00 -88.59)
    3   Mo  MulP 6.93 6.93 sum 13.86 diff  0.00 (179.81 217.35)  Ml 0.00 (180.00   0.00)  Ml+s 0.00 (179.98 217.78)
    4   Mo  MulP 7.31 7.31 sum 14.62 diff  0.00 (180.00 147.46)  Ml 0.00 (180.00   0.00)  Ml+s 0.00 (180.00 147.22)
    5   Mo  MulP 6.47 6.47 sum 12.95 diff  0.00 (  0.00 -47.77)  Ml 0.00 (  0.00   0.00)  Ml+s 0.00 (  0.00 -47.77)
    6   Mo  MulP 6.93 6.93 sum 13.86 diff  0.00 (179.51  75.01)  Ml 0.00 (180.00   0.00)  Ml+s 0.00 (179.95  74.49)
    7   Mo  MulP 7.31 7.31 sum 14.62 diff  0.00 (180.00  74.24)  Ml 0.00 (180.00   0.00)  Ml+s 0.00 (180.00  73.11)
    8   Mo  MulP 6.47 6.47 sum 12.95 diff  0.00 (  0.00   5.00)  Ml 0.00 (  0.00   0.00)  Ml+s 0.00 (  0.00   4.93)
    9   Mo  MulP 6.93 6.93 sum 13.86 diff  0.00 (179.71  48.81)  Ml 0.00 (180.00   0.00)  Ml+s 0.00 (179.97  48.53)
   10   Mo  MulP 7.31 7.31 sum 14.62 diff  0.00 (180.00 -77.84)  Ml 0.00 (180.00   0.00)  Ml+s 0.00 (180.00 -77.37)
   11   Mo  MulP 6.47 6.47 sum 12.95 diff  0.00 (  0.00   0.00)  Ml 0.00 (  0.00   0.00)  Ml+s 0.00 (  0.00   0.00)
   12   Mo  MulP 6.93 6.93 sum 13.86 diff  0.00 (179.59 205.08)  Ml 0.00 (180.00   0.00)  Ml+s 0.00 (179.96 205.25)
   13   Se  MulP 2.76 2.76 sum  5.51 diff  0.00 ( 90.00 217.59)  Ml 0.00 ( 10.71 251.38)  Ml+s 0.00 ( 90.00 217.59)
   14   Se  MulP 3.35 3.35 sum  6.70 diff  0.00 ( 90.00 186.41)  Ml 0.00 (139.28  57.70)  Ml+s 0.00 ( 90.00 186.41)
   15   Se  MulP 3.03 3.03 sum  6.07 diff  0.00 ( 90.00  45.20)  Ml 0.00 ( 92.73  80.62)  Ml+s 0.00 ( 90.00  45.20)
   16   Se  MulP 2.76 2.76 sum  5.51 diff  0.00 ( 90.00 217.59)  Ml 0.00 ( 10.71 251.38)  Ml+s 0.00 ( 90.00 217.59)
   17   Se  MulP 3.35 3.35 sum  6.70 diff  0.00 ( 90.00 186.41)  Ml 0.00 (139.28  57.70)  Ml+s 0.00 ( 90.00 186.41)
   18   Se  MulP 3.03 3.03 sum  6.07 diff  0.00 ( 90.00  45.20)  Ml 0.00 ( 92.73  80.62)  Ml+s 0.00 ( 90.00  45.20)
   19   Se  MulP 2.76 2.76 sum  5.51 diff  0.00 ( 90.00 217.59)  Ml 0.00 ( 10.71 251.38)  Ml+s 0.00 ( 90.00 217.59)
   20   Se  MulP 3.35 3.35 sum  6.70 diff  0.00 ( 90.00 186.41)  Ml 0.00 (139.28  57.70)  Ml+s 0.00 ( 90.00 186.41)
     ..........
     ......

 Sum of MulP: up   =   156.03067 down          =   155.96933
              total=   312.00000 ideal(neutral)=   312.00000
<DFT>  Total Spin Moment    (muB)  0.000000178   Angles    0.000021310    54.220572966
<DFT>  Total Orbital Moment (muB)  0.000000231   Angles    0.000000000     0.000000000
<DFT>  Total Moment         (muB)  0.000000410   Angles    0.000009274    54.220572966
<DFT>  Mixing_weight= 0.300000000000
<DFT>  Uele   = -266.331167867419  dUele     =   1.000000000000
<DFT>  NormRD =    1.000000000000  Criterion =   0.000000000001

******************* MD= 1  SCF= 2 *******************
<Poisson>  Poisson's equation using FFT...
<Set_Hamiltonian>  Hamiltonian matrix for VNA+dVH+Vxc...
<Band>  Solving the eigenvalue problem...
 KGrids1:  -0.45000  -0.35000  -0.25000  -0.15000  -0.05000   0.05000   0.15000   0.25000   0.35000   0.45000 
 KGrids2:  -0.45000  -0.35000  -0.25000  -0.15000  -0.05000   0.05000   0.15000   0.25000   0.35000   0.45000 
 KGrids3:   0.00000 
<Band_DFT>  Eigen, time=27.742610
<Band_DFT>  DM, time=50.088332
    1   Mo  MulP 7.30 7.30 sum 14.60 diff  0.00 (180.00   1.05)  Ml 0.00 (180.00   0.00)  Ml+s 0.00 (180.00   1.04)
    2   Mo  MulP 6.47 6.47 sum 12.94 diff  0.00 (  0.00 -87.74)  Ml 0.00 (  0.00   0.00)  Ml+s 0.00 (  0.00 -86.84)
    3   Mo  MulP 6.92 6.92 sum 13.85 diff  0.00 (180.00 217.72)  Ml 0.00 (  0.00   0.00)  Ml+s 0.00 (180.00 218.48)
    4   Mo  MulP 7.30 7.30 sum 14.60 diff  0.00 (180.00 147.70)  Ml 0.00 (180.00   0.00)  Ml+s 0.00 (180.00 147.52)
    5   Mo  MulP 6.47 6.47 sum 12.94 diff  0.00 (  0.00 -47.71)  Ml 0.00 (  0.00   0.00)  Ml+s 0.00 (  0.00 -47.71)
    6   Mo  MulP 6.92 6.92 sum 13.85 diff  0.00 (180.00  75.01)  Ml 0.00 (  0.00   0.00)  Ml+s 0.00 (180.00  74.45)
    7   Mo  MulP 7.30 7.30 sum 14.60 diff  0.00 (180.00  73.59)  Ml 0.00 (180.00   0.00)  Ml+s 0.00 (180.00  72.39)
    8   Mo  MulP 6.47 6.47 sum 12.94 diff  0.00 (  0.00   5.04)  Ml 0.00 (  0.00   0.00)  Ml+s 0.00 (  0.00   4.92)
    9   Mo  MulP 6.92 6.92 sum 13.85 diff  0.00 (180.00  48.42)  Ml 0.00 (  0.00   0.00)  Ml+s 0.00 (180.00  48.14)
   10   Mo  MulP 7.30 7.30 sum 14.60 diff  0.00 (180.00 -77.66)  Ml 0.00 (180.00   0.00)  Ml+s 0.00 (180.00 -77.19)
   11   Mo  MulP 6.47 6.47 sum 12.94 diff  0.00 (  0.00   0.00)  Ml 0.00 (  0.00   0.00)  Ml+s 0.00 (  0.00   0.00)
   12   Mo  MulP 6.92 6.92 sum 13.85 diff  0.00 (180.00 205.34)  Ml 0.00 (  0.00   0.00)  Ml+s 0.00 (180.00 205.55)
   13   Se  MulP 2.77 2.76 sum  5.53 diff  0.00 ( 90.00 217.46)  Ml 0.00 ( 11.34 259.55)  Ml+s 0.00 ( 90.00 217.46)
   14   Se  MulP 3.35 3.35 sum  6.71 diff  0.00 ( 90.00 185.77)  Ml 0.00 (137.02  61.64)  Ml+s 0.00 ( 90.00 185.77)
   15   Se  MulP 3.04 3.03 sum  6.07 diff  0.00 ( 90.00  44.81)  Ml 0.00 ( 90.27  77.35)  Ml+s 0.00 ( 90.00  44.81)
   16   Se  MulP 2.77 2.76 sum  5.53 diff  0.00 ( 90.00 217.46)  Ml 0.00 ( 11.34 259.55)  Ml+s 0.00 ( 90.00 217.46)
   17   Se  MulP 3.35 3.35 sum  6.71 diff  0.00 ( 90.00 185.77)  Ml 0.00 (137.02  61.64)  Ml+s 0.00 ( 90.00 185.77)
   18   Se  MulP 3.04 3.03 sum  6.07 diff  0.00 ( 90.00  44.81)  Ml 0.00 ( 90.27  77.35)  Ml+s 0.00 ( 90.00  44.81)
   19   Se  MulP 2.77 2.76 sum  5.53 diff  0.00 ( 90.00 217.46)  Ml 0.00 ( 11.34 259.55)  Ml+s 0.00 ( 90.00 217.46)
   20   Se  MulP 3.35 3.35 sum  6.71 diff  0.00 ( 90.00 185.77)  Ml 0.00 (137.02  61.64)  Ml+s 0.00 ( 90.00 185.77)
     ..........
     ......

 Sum of MulP: up   =   156.03043 down          =   155.96957
              total=   312.00000 ideal(neutral)=   312.00000
<DFT>  Total Spin Moment    (muB)  0.000000130   Angles    0.000028175    51.086939740
<DFT>  Total Orbital Moment (muB)  0.000000234   Angles    0.000000854     0.000000000
<DFT>  Total Moment         (muB)  0.000000364   Angles    0.000010387    48.727058646
<DFT>  Mixing_weight= 0.001000000000
<DFT>  Uele   = -264.959023365339  dUele     =   1.372144502080
<DFT>  NormRD =  223.669789647071  Criterion =   0.000000000001

******************* MD= 1  SCF= 3 *******************
<Poisson>  Poisson's equation using FFT...
<Set_Hamiltonian>  Hamiltonian matrix for VNA+dVH+Vxc...
<Band>  Solving the eigenvalue problem...
 KGrids1:  -0.45000  -0.35000  -0.25000  -0.15000  -0.05000   0.05000   0.15000   0.25000   0.35000   0.45000 
 KGrids2:  -0.45000  -0.35000  -0.25000  -0.15000  -0.05000   0.05000   0.15000   0.25000   0.35000   0.45000 
 KGrids3:   0.00000 
<Band_DFT>  Eigen, time=28.158220
<Band_DFT>  DM, time=50.246662
    1   Mo  MulP 4.62 4.62 sum  9.24 diff  0.00 (  0.00  56.65)  Ml 0.00 (  0.00   0.00)  Ml+s 0.00 (  0.00  56.65)
    2   Mo  MulP 2.84 2.84 sum  5.68 diff  0.00 (180.00  -1.75)  Ml 0.00 (  0.00   0.00)  Ml+s 0.00 (180.00  -1.73)
    3   Mo  MulP 2.48 2.48 sum  4.97 diff  0.00 (180.00 -55.91)  Ml 0.00 (  0.00   0.00)  Ml+s 0.00 (  0.00 -55.40)
    4   Mo  MulP 4.62 4.62 sum  9.24 diff  0.00 (  0.00   3.97)  Ml 0.00 (  0.00   0.00)  Ml+s 0.00 (  0.00   3.97)
    5   Mo  MulP 2.84 2.84 sum  5.68 diff  0.00 (180.00  91.73)  Ml 0.00 (  0.00   0.00)  Ml+s 0.00 (180.00  90.90)
    6   Mo  MulP 2.48 2.48 sum  4.97 diff  0.00 (180.00  23.35)  Ml 0.00 (  0.00   0.00)  Ml+s 0.00 (  0.00  21.69)
    7   Mo  MulP 4.62 4.62 sum  9.24 diff  0.00 (  0.00  33.61)  Ml 0.00 (  0.00   0.00)  Ml+s 0.00 (  0.00  33.61)
    8   Mo  MulP 2.84 2.84 sum  5.68 diff  0.00 (180.00 -75.99)  Ml 0.00 (  0.00   0.00)  Ml+s 0.00 (180.00 -75.99)
    9   Mo  MulP 2.48 2.48 sum  4.97 diff  0.00 (180.00   5.12)  Ml 0.00 (  0.00   0.00)  Ml+s 0.00 (  0.00   5.05)
   10   Mo  MulP 4.62 4.62 sum  9.24 diff  0.00 (  0.00  52.94)  Ml 0.00 (  0.00   0.00)  Ml+s 0.00 (  0.00  52.94)
   11   Mo  MulP 2.84 2.84 sum  5.68 diff  0.00 (180.00 177.64)  Ml 0.00 (  0.00   0.00)  Ml+s 0.00 (180.00 177.64)
   12   Mo  MulP 2.48 2.48 sum  4.97 diff  0.00 (180.00 -84.72)  Ml 0.00 (  0.00   0.00)  Ml+s 0.00 (  0.00 -83.58)
   13   Se  MulP 5.57 5.56 sum 11.13 diff  0.00 ( 90.01 -67.44)  Ml 0.00 ( 56.40  33.40)  Ml+s 0.00 ( 89.99 -67.42)
   14   Se  MulP 4.36 4.36 sum  8.72 diff  0.00 ( 90.00  97.78)  Ml 0.00 ( 91.23  64.15)  Ml+s 0.00 ( 90.00  97.77)
   15   Se  MulP 4.60 4.60 sum  9.20 diff  0.00 ( 90.02 -61.97)  Ml 0.00 (105.67 126.05)  Ml+s 0.00 ( 90.03 -61.97)
   16   Se  MulP 5.57 5.56 sum 11.13 diff  0.00 ( 90.01 -67.44)  Ml 0.00 ( 56.40  33.40)  Ml+s 0.00 ( 89.99 -67.42)
   17   Se  MulP 4.36 4.36 sum  8.72 diff  0.00 ( 90.00  97.78)  Ml 0.00 ( 91.23  64.15)  Ml+s 0.00 ( 90.00  97.77)
   18   Se  MulP 4.60 4.60 sum  9.20 diff  0.00 ( 90.02 -61.97)  Ml 0.00 (105.67 126.05)  Ml+s 0.00 ( 90.03 -61.97)
   19   Se  MulP 5.57 5.56 sum 11.13 diff  0.00 ( 90.01 -67.44)  Ml 0.00 ( 56.40  33.40)  Ml+s 0.00 ( 89.99 -67.42)
   20   Se  MulP 4.36 4.36 sum  8.72 diff  0.00 ( 90.00  97.78)  Ml 0.00 ( 91.23  64.15)  Ml+s 0.00 ( 90.00  97.77)
     ..........
     ......

 Sum of MulP: up   =   156.03838 down          =   155.96162
              total=   312.00000 ideal(neutral)=   312.00000
<DFT>  Total Spin Moment    (muB)  0.000011255   Angles  179.999983445     0.796576617
<DFT>  Total Orbital Moment (muB)  0.000007068   Angles    0.000001479   175.265068908
<DFT>  Total Moment         (muB)  0.000004187   Angles  179.999957983     1.124698663
<DFT>  Mixing_weight= 0.001403800726
<DFT>  Uele   =  515.733248763705  dUele     = 780.692272129044
<DFT>  NormRD =  119.960466396753  Criterion =   0.000000000001

******************* MD= 1  SCF= 4 *******************
<Poisson>  Poisson's equation using FFT...
<Set_Hamiltonian>  Hamiltonian matrix for VNA+dVH+Vxc...
<Band>  Solving the eigenvalue problem...
 KGrids1:  -0.45000  -0.35000  -0.25000  -0.15000  -0.05000   0.05000   0.15000   0.25000   0.35000   0.45000 
 KGrids2:  -0.45000  -0.35000  -0.25000  -0.15000  -0.05000   0.05000   0.15000   0.25000   0.35000   0.45000 
 KGrids3:   0.00000 
<Band_DFT>  Eigen, time=28.197898
<Band_DFT>  DM, time=50.221970
    1   Mo  MulP 4.62 4.62 sum  9.24 diff  0.00 (180.00  86.11)  Ml 0.00 (  0.00   0.00)  Ml+s 0.00 (  0.00  86.11)
    2   Mo  MulP 2.84 2.84 sum  5.68 diff  0.00 (180.00   0.11)  Ml 0.00 (  0.00   0.00)  Ml+s 0.00 (180.00   0.11)
    3   Mo  MulP 2.48 2.48 sum  4.97 diff  0.00 (180.00 250.75)  Ml 0.00 (  0.00   0.00)  Ml+s 0.00 (  0.00 251.49)
    4   Mo  MulP 4.62 4.62 sum  9.24 diff  0.00 (180.00   0.00)  Ml 0.00 (  0.00   0.00)  Ml+s 0.00 (  0.00   0.00)
    5   Mo  MulP 2.84 2.84 sum  5.68 diff  0.00 (180.00  75.07)  Ml 0.00 (  0.00   0.00)  Ml+s 0.00 (180.00  74.31)
    6   Mo  MulP 2.48 2.48 sum  4.97 diff  0.00 (180.00 170.95)  Ml 0.00 (  0.00   0.00)  Ml+s 0.00 (  0.00 170.72)
    7   Mo  MulP 4.62 4.62 sum  9.24 diff  0.00 (180.00  58.24)  Ml 0.00 (  0.00   0.00)  Ml+s 0.00 (  0.00  58.24)
    8   Mo  MulP 2.84 2.84 sum  5.68 diff  0.00 (180.00 -38.33)  Ml 0.00 (  0.00   0.00)  Ml+s 0.00 (180.00 -38.33)
    9   Mo  MulP 2.48 2.48 sum  4.97 diff  0.00 (180.00  33.25)  Ml 0.00 (  0.00   0.00)  Ml+s 0.00 (  0.00  33.25)
   10   Mo  MulP 4.62 4.62 sum  9.24 diff  0.00 (180.00  68.94)  Ml 0.00 (  0.00   0.00)  Ml+s 0.00 (  0.00  68.94)
   11   Mo  MulP 2.84 2.84 sum  5.68 diff  0.00 (180.00   0.00)  Ml 0.00 (  0.00   0.00)  Ml+s 0.00 (180.00   0.00)
   12   Mo  MulP 2.48 2.48 sum  4.97 diff  0.00 (180.00 243.08)  Ml 0.00 (  0.00   0.00)  Ml+s 0.00 (  0.00 243.70)
   13   Se  MulP 5.57 5.56 sum 11.13 diff  0.00 ( 90.01 -67.16)  Ml 0.00 ( 61.60  31.57)  Ml+s 0.00 ( 89.99 -67.13)
   14   Se  MulP 4.36 4.36 sum  8.72 diff  0.00 ( 90.00  98.11)  Ml 0.00 ( 86.73  60.96)  Ml+s 0.00 ( 90.00  98.09)
   15   Se  MulP 4.60 4.60 sum  9.20 diff  0.00 ( 90.01 -61.18)  Ml 0.00 (107.56 104.04)  Ml+s 0.00 ( 90.03 -61.17)
   16   Se  MulP 5.57 5.56 sum 11.13 diff  0.00 ( 90.01 -67.16)  Ml 0.00 ( 61.60  31.57)  Ml+s 0.00 ( 89.99 -67.13)
   17   Se  MulP 4.36 4.36 sum  8.72 diff  0.00 ( 90.00  98.11)  Ml 0.00 ( 86.73  60.96)  Ml+s 0.00 ( 90.00  98.09)
   18   Se  MulP 4.60 4.60 sum  9.20 diff  0.00 ( 90.01 -61.18)  Ml 0.00 (107.56 104.04)  Ml+s 0.00 ( 90.03 -61.17)
   19   Se  MulP 5.57 5.56 sum 11.13 diff  0.00 ( 90.01 -67.16)  Ml 0.00 ( 61.60  31.57)  Ml+s 0.00 ( 89.99 -67.13)
   20   Se  MulP 4.36 4.36 sum  8.72 diff  0.00 ( 90.00  98.11)  Ml 0.00 ( 86.73  60.96)  Ml+s 0.00 ( 90.00  98.09)
     ..........
     ......

 Sum of MulP: up   =   156.03792 down          =   155.96208
              total=   312.00000 ideal(neutral)=   312.00000
<DFT>  Total Spin Moment    (muB)  0.000008678   Angles  179.999997042     5.908277103
<DFT>  Total Orbital Moment (muB)  0.000008025   Angles    0.000000000   203.500603524
<DFT>  Total Moment         (muB)  0.000000654   Angles  179.999960726     5.908277103
<DFT>  Mixing_weight= 0.129821060102
<DFT>  Uele   =  514.694189858568  dUele     =   1.039058905137
<DFT>  NormRD =  119.310116170617  Criterion =   0.000000000001

******************* MD= 1  SCF= 5 *******************
<Poisson>  Poisson's equation using FFT...
<Set_Hamiltonian>  Hamiltonian matrix for VNA+dVH+Vxc...
<Band>  Solving the eigenvalue problem...
 KGrids1:  -0.45000  -0.35000  -0.25000  -0.15000  -0.05000   0.05000   0.15000   0.25000   0.35000   0.45000 
 KGrids2:  -0.45000  -0.35000  -0.25000  -0.15000  -0.05000   0.05000   0.15000   0.25000   0.35000   0.45000 
 KGrids3:   0.00000 
<Band_DFT>  Eigen, time=28.125319
<Band_DFT>  DM, time=50.342077
    1   Mo  MulP 5.05 5.05 sum 10.10 diff  0.00 (  0.00   0.00)  Ml 0.00 (180.00   0.00)  Ml+s 0.00 (  0.00   0.00)
    2   Mo  MulP 7.67 7.67 sum 15.33 diff  0.00 (  0.00   8.24)  Ml 0.00 (180.00   0.00)  Ml+s 0.00 (  0.00   8.21)
    3   Mo  MulP 5.80 5.80 sum 11.59 diff  0.00 (  0.00 172.73)  Ml 0.00 (  0.00   0.00)  Ml+s 0.00 (  0.00 172.66)
    4   Mo  MulP 5.05 5.05 sum 10.10 diff  0.00 (  0.00 218.82)  Ml 0.00 (180.00   0.00)  Ml+s 0.00 (  0.00 220.20)
    5   Mo  MulP 7.67 7.67 sum 15.33 diff  0.00 (  0.00 -64.80)  Ml 0.00 (180.00   0.00)  Ml+s 0.00 (  0.00 -64.35)
    6   Mo  MulP 5.80 5.80 sum 11.59 diff  0.00 (  0.00 145.70)  Ml 0.00 (  0.00   0.00)  Ml+s 0.00 (  0.00 145.59)
    7   Mo  MulP 5.05 5.05 sum 10.10 diff  0.00 (  0.00 138.64)  Ml 0.00 (180.00   0.00)  Ml+s 0.00 (  0.00 138.39)
    8   Mo  MulP 7.67 7.67 sum 15.33 diff  0.00 (  0.00 216.12)  Ml 0.00 (180.00   0.00)  Ml+s 0.00 (  0.00 216.50)
    9   Mo  MulP 5.80 5.80 sum 11.59 diff  0.00 (  0.00   0.00)  Ml 0.00 (  0.00   0.00)  Ml+s 0.00 (  0.00   0.00)
   10   Mo  MulP 5.05 5.05 sum 10.10 diff  0.00 (  0.00 149.42)  Ml 0.00 (180.00   0.00)  Ml+s 0.00 (  0.00 149.33)
   11   Mo  MulP 7.67 7.67 sum 15.33 diff  0.00 (  0.00 193.31)  Ml 0.00 (180.00   0.00)  Ml+s 0.00 (  0.00 193.41)
   12   Mo  MulP 5.80 5.80 sum 11.59 diff  0.00 (  0.00 221.93)  Ml 0.00 (  0.00   0.00)  Ml+s 0.00 (  0.00 222.08)
   13   Se  MulP 3.88 3.88 sum  7.76 diff  0.00 ( 90.00  79.79)  Ml 0.00 ( 84.50 -44.26)  Ml+s 0.00 ( 90.00  79.79)
   14   Se  MulP 2.96 2.96 sum  5.93 diff  0.00 ( 90.00 204.96)  Ml 0.00 ( 28.14   9.58)  Ml+s 0.00 ( 90.00 204.96)
   15   Se  MulP 3.40 3.40 sum  6.80 diff  0.00 ( 90.00 -81.83)  Ml 0.00 ( 86.00 -48.91)  Ml+s 0.00 ( 90.00 -81.83)
   16   Se  MulP 3.88 3.88 sum  7.76 diff  0.00 ( 90.00  79.79)  Ml 0.00 ( 84.50 -44.26)  Ml+s 0.00 ( 90.00  79.79)
   17   Se  MulP 2.96 2.96 sum  5.93 diff  0.00 ( 90.00 204.96)  Ml 0.00 ( 28.14   9.58)  Ml+s 0.00 ( 90.00 204.96)
   18   Se  MulP 3.40 3.40 sum  6.80 diff  0.00 ( 90.00 -81.83)  Ml 0.00 ( 86.00 -48.91)  Ml+s 0.00 ( 90.00 -81.83)
   19   Se  MulP 3.88 3.88 sum  7.76 diff  0.00 ( 90.00  79.79)  Ml 0.00 ( 84.50 -44.26)  Ml+s 0.00 ( 90.00  79.79)
   20   Se  MulP 2.96 2.96 sum  5.93 diff  0.00 ( 90.00 204.96)  Ml 0.00 ( 28.14   9.58)  Ml+s 0.00 ( 90.00 204.96)
     ..........
     ......

 Sum of MulP: up   =   156.02058 down          =   155.97942
              total=   312.00000 ideal(neutral)=   312.00000
<DFT>  Total Spin Moment    (muB)  0.000000287   Angles    0.000023783    46.664411879
<DFT>  Total Orbital Moment (muB)  0.000000018   Angles    0.000026148     0.000000000
<DFT>  Total Moment         (muB)  0.000000305   Angles    0.000023459    43.919589534
<DFT>  Mixing_weight= 0.129821060102
<DFT>  Uele   =   99.274833487232  dUele     = 415.419356371336
<DFT>  NormRD =   24.548529785570  Criterion =   0.000000000001

******************* MD= 1  SCF= 6 *******************
<Poisson>  Poisson's equation using FFT...
<Set_Hamiltonian>  Hamiltonian matrix for VNA+dVH+Vxc...
<Band>  Solving the eigenvalue problem...
 KGrids1:  -0.45000  -0.35000  -0.25000  -0.15000  -0.05000   0.05000   0.15000   0.25000   0.35000   0.45000 
 KGrids2:  -0.45000  -0.35000  -0.25000  -0.15000  -0.05000   0.05000   0.15000   0.25000   0.35000   0.45000 
 KGrids3:   0.00000 
<Band_DFT>  Eigen, time=28.159981
<Band_DFT>  DM, time=50.061404
    1   Mo  MulP 4.91 4.91 sum  9.83 diff  0.00 (180.00  36.27)  Ml 0.00 (180.00   0.00)  Ml+s 0.00 (180.00  35.75)
    2   Mo  MulP 7.54 7.54 sum 15.09 diff  0.00 (180.00  -1.57)  Ml 0.00 (180.00   0.00)  Ml+s 0.00 (180.00  -1.56)
    3   Mo  MulP 7.94 7.94 sum 15.88 diff  0.00 (180.00 154.87)  Ml 0.00 (  0.00   0.00)  Ml+s 0.00 (180.00 154.66)
    4   Mo  MulP 4.91 4.91 sum  9.83 diff  0.00 (180.00  84.51)  Ml 0.00 (180.00   0.00)  Ml+s 0.00 (180.00  83.73)
    5   Mo  MulP 7.54 7.54 sum 15.09 diff  0.00 (180.00 -73.90)  Ml 0.00 (180.00   0.00)  Ml+s 0.00 (180.00 -73.47)
    6   Mo  MulP 7.94 7.94 sum 15.88 diff  0.00 (180.00 103.67)  Ml 0.00 (  0.00   0.00)  Ml+s 0.00 (180.00 103.20)
    7   Mo  MulP 4.91 4.91 sum  9.83 diff  0.00 (180.00 131.13)  Ml 0.00 (180.00   0.00)  Ml+s 0.00 (180.00 130.99)
    8   Mo  MulP 7.54 7.54 sum 15.09 diff  0.00 (180.00 -78.58)  Ml 0.00 (180.00   0.00)  Ml+s 0.00 (180.00 -75.80)
    9   Mo  MulP 7.94 7.94 sum 15.88 diff  0.00 (180.00  35.63)  Ml 0.00 (  0.00   0.00)  Ml+s 0.00 (180.00  35.34)
   10   Mo  MulP 4.91 4.91 sum  9.83 diff  0.00 (180.00  41.59)  Ml 0.00 (180.00   0.00)  Ml+s 0.00 (180.00  40.93)
   11   Mo  MulP 7.54 7.54 sum 15.09 diff  0.00 (180.00 131.62)  Ml 0.00 (180.00   0.00)  Ml+s 0.00 (180.00 131.62)
   12   Mo  MulP 7.94 7.94 sum 15.88 diff  0.00 (180.00 253.91)  Ml 0.00 (  0.00   0.00)  Ml+s 0.00 (180.00 254.44)
   13   Se  MulP 3.40 3.40 sum  6.80 diff  0.00 ( 90.00 110.64)  Ml 0.00 ( 10.23 264.42)  Ml+s 0.00 ( 90.00 110.64)
   14   Se  MulP 2.90 2.90 sum  5.80 diff  0.00 ( 90.00 268.97)  Ml 0.00 (107.34 140.14)  Ml+s 0.00 ( 90.00 268.97)
   15   Se  MulP 3.00 3.00 sum  6.00 diff  0.00 ( 90.00  15.10)  Ml 0.00 ( 57.04 140.37)  Ml+s 0.00 ( 90.00  15.10)
   16   Se  MulP 3.40 3.40 sum  6.80 diff  0.00 ( 90.00 110.64)  Ml 0.00 ( 10.23 264.42)  Ml+s 0.00 ( 90.00 110.64)
   17   Se  MulP 2.90 2.90 sum  5.80 diff  0.00 ( 90.00 268.97)  Ml 0.00 (107.34 140.14)  Ml+s 0.00 ( 90.00 268.97)
   18   Se  MulP 3.00 3.00 sum  6.00 diff  0.00 ( 90.00  15.10)  Ml 0.00 ( 57.04 140.37)  Ml+s 0.00 ( 90.00  15.10)
   19   Se  MulP 3.40 3.40 sum  6.80 diff  0.00 ( 90.00 110.64)  Ml 0.00 ( 10.23 264.42)  Ml+s 0.00 ( 90.00 110.64)
   20   Se  MulP 2.90 2.90 sum  5.80 diff  0.00 ( 90.00 268.97)  Ml 0.00 (107.34 140.14)  Ml+s 0.00 ( 90.00 268.97)
     ..........
     ......

 Sum of MulP: up   =   156.01286 down          =   155.98714
              total=   312.00000 ideal(neutral)=   312.00000
<DFT>  Total Spin Moment    (muB)  0.000000214   Angles  179.999985262    66.136544184
<DFT>  Total Orbital Moment (muB)  0.000000019   Angles  179.999981570     0.000000000
<DFT>  Total Moment         (muB)  0.000000233   Angles  179.999985790    60.610289029
<DFT>  Mixing_weight= 0.129821060102
<DFT>  Uele   =  -24.839464848588  dUele     = 124.114298335820
<DFT>  NormRD =   18.822707922696  Criterion =   0.000000000001

******************* MD= 1  SCF= 7 *******************
<Poisson>  Poisson's equation using FFT...
<Set_Hamiltonian>  Hamiltonian matrix for VNA+dVH+Vxc...
<Band>  Solving the eigenvalue problem...
 KGrids1:  -0.45000  -0.35000  -0.25000  -0.15000  -0.05000   0.05000   0.15000   0.25000   0.35000   0.45000 
 KGrids2:  -0.45000  -0.35000  -0.25000  -0.15000  -0.05000   0.05000   0.15000   0.25000   0.35000   0.45000 
 KGrids3:   0.00000 
<Band_DFT>  Eigen, time=28.191041
<Band_DFT>  DM, time=50.368058
    1   Mo  MulP 8.26 8.26 sum 16.52 diff  0.00 (180.00 205.72)  Ml 0.00 (  0.00   0.00)  Ml+s 0.00 (  0.00 206.03)
    2   Mo  MulP 4.24 4.24 sum  8.48 diff  0.00 (  0.00  75.34)  Ml 0.00 (180.00   0.00)  Ml+s 0.00 (180.00  75.34)
    3   Mo  MulP 4.04 4.04 sum  8.07 diff  0.00 (  0.01 122.66)  Ml 0.00 (  0.00   0.00)  Ml+s 0.00 (  0.00 122.58)
    4   Mo  MulP 8.26 8.26 sum 16.52 diff  0.00 (180.00 152.55)  Ml 0.00 (  0.00   0.00)  Ml+s 0.00 (  0.00 152.55)
    5   Mo  MulP 4.24 4.24 sum  8.48 diff  0.00 (  0.00 174.38)  Ml 0.00 (180.00   0.00)  Ml+s 0.00 (180.00 174.37)
    6   Mo  MulP 4.04 4.04 sum  8.07 diff  0.00 (  0.01 187.79)  Ml 0.00 (  0.00   0.00)  Ml+s 0.00 (  0.00 187.81)
    7   Mo  MulP 8.26 8.26 sum 16.52 diff  0.00 (180.00 214.12)  Ml 0.00 (  0.00   0.00)  Ml+s 0.00 (  0.00 214.23)
    8   Mo  MulP 4.24 4.24 sum  8.48 diff  0.00 (  0.00 201.44)  Ml 0.00 (180.00   0.00)  Ml+s 0.00 (180.00 201.49)
    9   Mo  MulP 4.04 4.04 sum  8.07 diff  0.00 (  0.00 150.85)  Ml 0.00 (  0.00   0.00)  Ml+s 0.00 (  0.00 150.75)
   10   Mo  MulP 8.26 8.26 sum 16.52 diff  0.00 (180.00   0.00)  Ml 0.00 (  0.00   0.00)  Ml+s 0.00 (  0.00   0.00)
   11   Mo  MulP 4.24 4.24 sum  8.48 diff  0.00 (  0.00 161.25)  Ml 0.00 (180.00   0.00)  Ml+s 0.00 (180.00 161.22)
   12   Mo  MulP 4.04 4.04 sum  8.07 diff  0.00 (  0.01 144.90)  Ml 0.00 (  0.00   0.00)  Ml+s 0.00 (  0.00 144.86)
   13   Se  MulP 3.52 3.52 sum  7.05 diff  0.00 ( 90.01  25.33)  Ml 0.00 ( 98.45 226.23)  Ml+s 0.00 ( 90.02  25.33)
   14   Se  MulP 3.64 3.63 sum  7.27 diff  0.01 ( 90.00 237.74)  Ml 0.00 ( 43.21 156.40)  Ml+s 0.01 ( 90.00 237.74)
   15   Se  MulP 4.08 4.07 sum  8.15 diff  0.01 ( 90.00  36.63)  Ml 0.00 ( 61.05 190.74)  Ml+s 0.01 ( 90.00  36.63)
   16   Se  MulP 3.52 3.52 sum  7.05 diff  0.00 ( 90.01  25.33)  Ml 0.00 ( 98.45 226.23)  Ml+s 0.00 ( 90.02  25.33)
   17   Se  MulP 3.64 3.63 sum  7.27 diff  0.01 ( 90.00 237.74)  Ml 0.00 ( 43.21 156.40)  Ml+s 0.01 ( 90.00 237.74)
   18   Se  MulP 4.08 4.07 sum  8.15 diff  0.01 ( 90.00  36.63)  Ml 0.00 ( 61.05 190.74)  Ml+s 0.01 ( 90.00  36.63)
   19   Se  MulP 3.52 3.52 sum  7.05 diff  0.00 ( 90.01  25.33)  Ml 0.00 ( 98.45 226.23)  Ml+s 0.00 ( 90.02  25.33)
   20   Se  MulP 3.64 3.63 sum  7.27 diff  0.01 ( 90.00 237.74)  Ml 0.00 ( 43.21 156.40)  Ml+s 0.01 ( 90.00 237.74)
     ..........
     ......

 Sum of MulP: up   =   156.05114 down          =   155.94886
              total=   312.00000 ideal(neutral)=   312.00000
<DFT>  Total Spin Moment    (muB)  0.000002833   Angles  179.999997042    27.489154298
<DFT>  Total Orbital Moment (muB)  0.000000902   Angles    0.000000000     0.000000000
<DFT>  Total Moment         (muB)  0.000001931   Angles  179.999995647    27.489154298
<DFT>  Mixing_weight= 0.129821060102
<DFT>  Uele   =   61.657621324000  dUele     =  86.497086172589
<DFT>  NormRD =   17.981159810770  Criterion =   0.000000000001

******************* MD= 1  SCF= 8 *******************
<Poisson>  Poisson's equation using FFT...
<Set_Hamiltonian>  Hamiltonian matrix for VNA+dVH+Vxc...
<Band>  Solving the eigenvalue problem...
 KGrids1:  -0.45000  -0.35000  -0.25000  -0.15000  -0.05000   0.05000   0.15000   0.25000   0.35000   0.45000 
 KGrids2:  -0.45000  -0.35000  -0.25000  -0.15000  -0.05000   0.05000   0.15000   0.25000   0.35000   0.45000 
 KGrids3:   0.00000 
<Band_DFT>  Eigen, time=27.783250
<Band_DFT>  DM, time=50.021123
    1   Mo  MulP 5.43 5.43 sum 10.85 diff  0.00 (  0.00 191.41)  Ml 0.00 (  0.00   0.00)  Ml+s 0.00 (  0.00 191.44)
    2   Mo  MulP 9.61 9.61 sum 19.23 diff  0.00 (  0.00 -72.19)  Ml 0.00 (  0.00   0.00)  Ml+s 0.00 (  0.00 -71.88)
    3   Mo  MulP 8.15 8.15 sum 16.30 diff  0.00 (  0.00  28.28)  Ml 0.00 (180.00   0.00)  Ml+s 0.00 (180.00  28.28)
    4   Mo  MulP 5.43 5.43 sum 10.85 diff  0.00 (  0.00 187.54)  Ml 0.00 (  0.00   0.00)  Ml+s 0.00 (  0.00 187.54)
    5   Mo  MulP 9.61 9.61 sum 19.23 diff  0.00 (  0.00 -80.21)  Ml 0.00 (  0.00   0.00)  Ml+s 0.00 (  0.00 -80.02)
    6   Mo  MulP 8.15 8.15 sum 16.30 diff  0.00 (  0.00  33.76)  Ml 0.00 (180.00   0.00)  Ml+s 0.00 (180.00  33.71)
    7   Mo  MulP 5.43 5.43 sum 10.85 diff  0.00 (  0.00 184.77)  Ml 0.00 (  0.00   0.00)  Ml+s 0.00 (  0.00 184.78)
    8   Mo  MulP 9.61 9.61 sum 19.23 diff  0.00 (  0.00 -80.29)  Ml 0.00 (  0.00   0.00)  Ml+s 0.00 (  0.00 -80.06)
    9   Mo  MulP 8.15 8.15 sum 16.30 diff  0.00 (  0.00  29.25)  Ml 0.00 (180.00   0.00)  Ml+s 0.00 (180.00  29.25)
   10   Mo  MulP 5.43 5.43 sum 10.85 diff  0.00 (  0.00 197.46)  Ml 0.00 (  0.00   0.00)  Ml+s 0.00 (  0.00 197.49)
   11   Mo  MulP 9.61 9.61 sum 19.23 diff  0.00 (  0.00 -86.58)  Ml 0.00 (  0.00   0.00)  Ml+s 0.00 (  0.00 -86.33)
   12   Mo  MulP 8.15 8.15 sum 16.30 diff  0.00 (  0.00  27.76)  Ml 0.00 (180.00   0.00)  Ml+s 0.00 (180.00  27.73)
   13   Se  MulP 2.54 2.53 sum  5.07 diff  0.01 ( 90.00 166.25)  Ml 0.00 (135.70 -63.75)  Ml+s 0.01 ( 90.00 166.25)
   14   Se  MulP 2.76 2.75 sum  5.51 diff  0.00 ( 90.00 218.33)  Ml 0.00 ( 12.41 268.20)  Ml+s 0.00 ( 90.00 218.33)
   15   Se  MulP 2.62 2.61 sum  5.23 diff  0.01 ( 90.00  27.20)  Ml 0.00 (127.75  73.81)  Ml+s 0.01 ( 90.00  27.20)
   16   Se  MulP 2.54 2.53 sum  5.07 diff  0.01 ( 90.00 166.25)  Ml 0.00 (135.70 -63.75)  Ml+s 0.01 ( 90.00 166.25)
   17   Se  MulP 2.76 2.75 sum  5.51 diff  0.00 ( 90.00 218.33)  Ml 0.00 ( 12.41 268.20)  Ml+s 0.00 ( 90.00 218.33)
   18   Se  MulP 2.62 2.61 sum  5.23 diff  0.01 ( 90.00  27.20)  Ml 0.00 (127.75  73.81)  Ml+s 0.01 ( 90.00  27.20)
   19   Se  MulP 2.54 2.53 sum  5.07 diff  0.01 ( 90.00 166.25)  Ml 0.00 (135.70 -63.75)  Ml+s 0.01 ( 90.00 166.25)
   20   Se  MulP 2.76 2.75 sum  5.51 diff  0.00 ( 90.00 218.33)  Ml 0.00 ( 12.41 268.20)  Ml+s 0.00 ( 90.00 218.33)
     ..........
     ......

 Sum of MulP: up   =   156.06640 down          =   155.93360
              total=   312.00000 ideal(neutral)=   312.00000
<DFT>  Total Spin Moment    (muB)  0.000001204   Angles    0.000004436    54.616452099
<DFT>  Total Orbital Moment (muB)  0.000000103   Angles    0.000001479     0.000000000
<DFT>  Total Moment         (muB)  0.000001307   Angles    0.000004095    53.307633270
<DFT>  Mixing_weight= 0.129821060102
<DFT>  Uele   = -254.866974429038  dUele     = 316.524595753038
<DFT>  NormRD =   18.091311585903  Criterion =   0.000000000001

******************* MD= 1  SCF= 9 *******************
<Poisson>  Poisson's equation using FFT...
<Set_Hamiltonian>  Hamiltonian matrix for VNA+dVH+Vxc...
<Band>  Solving the eigenvalue problem...
 KGrids1:  -0.45000  -0.35000  -0.25000  -0.15000  -0.05000   0.05000   0.15000   0.25000   0.35000   0.45000 
 KGrids2:  -0.45000  -0.35000  -0.25000  -0.15000  -0.05000   0.05000   0.15000   0.25000   0.35000   0.45000 
 KGrids3:   0.00000 
<Band_DFT>  Eigen, time=28.017080
<Band_DFT>  DM, time=50.390226
    1   Mo  MulP 5.43 5.43 sum 10.85 diff  0.00 (  0.00  31.73)  Ml 0.00 (180.00   0.00)  Ml+s 0.00 (180.00  31.61)
    2   Mo  MulP 6.34 6.34 sum 12.67 diff  0.00 (  0.00 -75.62)  Ml 0.00 (  0.00   0.00)  Ml+s 0.00 (  0.00 -75.46)
    3   Mo  MulP 7.41 7.41 sum 14.81 diff  0.00 (  0.06  78.28)  Ml 0.00 (  0.00   0.00)  Ml+s 0.00 (  0.01  78.23)
    4   Mo  MulP 5.43 5.43 sum 10.85 diff  0.00 (  0.00  81.74)  Ml 0.00 (180.00   0.00)  Ml+s 0.00 (180.00  80.99)
    5   Mo  MulP 6.34 6.34 sum 12.67 diff  0.00 (  0.00 -81.84)  Ml 0.00 (  0.00   0.00)  Ml+s 0.00 (  0.00 -81.75)
    6   Mo  MulP 7.41 7.41 sum 14.81 diff  0.00 (  0.07  77.18)  Ml 0.00 (  0.00   0.00)  Ml+s 0.00 (  0.01  77.07)
    7   Mo  MulP 5.43 5.43 sum 10.85 diff  0.00 (  0.00  86.98)  Ml 0.00 (180.00   0.00)  Ml+s 0.00 (180.00  86.58)
    8   Mo  MulP 6.34 6.34 sum 12.67 diff  0.00 (  0.00 -84.89)  Ml 0.00 (  0.00   0.00)  Ml+s 0.00 (  0.00 -84.75)
    9   Mo  MulP 7.41 7.41 sum 14.81 diff  0.00 (  0.07  66.43)  Ml 0.00 (  0.00   0.00)  Ml+s 0.00 (  0.01  66.39)
   10   Mo  MulP 5.43 5.43 sum 10.85 diff  0.00 (  0.00  13.77)  Ml 0.00 (180.00   0.00)  Ml+s 0.00 (180.00  13.51)
   11   Mo  MulP 6.34 6.34 sum 12.67 diff  0.00 (  0.00 261.80)  Ml 0.00 (  0.00   0.00)  Ml+s 0.00 (  0.00 261.92)
   12   Mo  MulP 7.41 7.41 sum 14.81 diff  0.00 (  0.05  77.13)  Ml 0.00 (  0.00   0.00)  Ml+s 0.00 (  0.00  76.95)
   13   Se  MulP 3.39 3.39 sum  6.77 diff  0.00 ( 90.00 136.37)  Ml 0.00 (124.61 -80.07)  Ml+s 0.00 ( 90.00 136.37)
   14   Se  MulP 3.39 3.39 sum  6.78 diff  0.00 ( 90.00 269.03)  Ml 0.00 ( 77.09 111.50)  Ml+s 0.00 ( 90.00 269.03)
   15   Se  MulP 3.14 3.14 sum  6.27 diff  0.00 ( 90.00  55.78)  Ml 0.00 (158.25 112.32)  Ml+s 0.00 ( 90.00  55.78)
   16   Se  MulP 3.39 3.39 sum  6.77 diff  0.00 ( 90.00 136.37)  Ml 0.00 (124.61 -80.07)  Ml+s 0.00 ( 90.00 136.37)
   17   Se  MulP 3.39 3.39 sum  6.78 diff  0.00 ( 90.00 269.03)  Ml 0.00 ( 77.09 111.50)  Ml+s 0.00 ( 90.00 269.03)
   18   Se  MulP 3.14 3.14 sum  6.27 diff  0.00 ( 90.00  55.78)  Ml 0.00 (158.25 112.32)  Ml+s 0.00 ( 90.00  55.78)
   19   Se  MulP 3.39 3.39 sum  6.77 diff  0.00 ( 90.00 136.37)  Ml 0.00 (124.61 -80.07)  Ml+s 0.00 ( 90.00 136.37)
   20   Se  MulP 3.39 3.39 sum  6.78 diff  0.00 ( 90.00 269.03)  Ml 0.00 ( 77.09 111.50)  Ml+s 0.00 ( 90.00 269.03)
     ..........
     ......

 Sum of MulP: up   =   156.01857 down          =   155.98143
              total=   312.00000 ideal(neutral)=   312.00000
<DFT>  Total Spin Moment    (muB)  0.000000058   Angles  179.999957235    41.137519678
<DFT>  Total Orbital Moment (muB)  0.000000036   Angles  179.999993387     0.000000000
<DFT>  Total Moment         (muB)  0.000000093   Angles  179.999971658    37.768135223
<DFT>  Mixing_weight= 0.129821060102
<DFT>  Uele   = -103.204535855649  dUele     = 151.662438573389
<DFT>  NormRD =    8.129477761764  Criterion =   0.000000000001

******************* MD= 1  SCF=10 *******************
<Poisson>  Poisson's equation using FFT...
<Set_Hamiltonian>  Hamiltonian matrix for VNA+dVH+Vxc...
<Band>  Solving the eigenvalue problem...
 KGrids1:  -0.45000  -0.35000  -0.25000  -0.15000  -0.05000   0.05000   0.15000   0.25000   0.35000   0.45000 
 KGrids2:  -0.45000  -0.35000  -0.25000  -0.15000  -0.05000   0.05000   0.15000   0.25000   0.35000   0.45000 
 KGrids3:   0.00000 
<Band_DFT>  Eigen, time=28.021827
<Band_DFT>  DM, time=50.487835
    1   Mo  MulP 5.93 5.93 sum 11.86 diff  0.00 (  0.00 265.04)  Ml 0.00 (180.00   0.00)  Ml+s 0.00 (  0.00 265.13)
    2   Mo  MulP 7.69 7.69 sum 15.38 diff  0.00 (  0.01  74.35)  Ml 0.00 (180.00   0.00)  Ml+s 0.00 (  0.01  74.32)
    3   Mo  MulP 6.42 6.42 sum 12.83 diff  0.00 (  0.00  11.36)  Ml 0.00 (  0.00   0.00)  Ml+s 0.00 (  0.00  11.34)
    4   Mo  MulP 5.93 5.93 sum 11.86 diff  0.00 (  0.00 250.54)  Ml 0.00 (180.00   0.00)  Ml+s 0.00 (  0.00 250.79)
    5   Mo  MulP 7.69 7.69 sum 15.38 diff  0.00 (  0.01  76.22)  Ml 0.00 (180.00   0.00)  Ml+s 0.00 (  0.01  76.20)
    6   Mo  MulP 6.42 6.42 sum 12.83 diff  0.00 (  0.00  16.20)  Ml 0.00 (  0.00   0.00)  Ml+s 0.00 (  0.00  16.16)
    7   Mo  MulP 5.93 5.93 sum 11.86 diff  0.00 (  0.00 239.82)  Ml 0.00 (180.00   0.00)  Ml+s 0.00 (  0.00 239.86)
    8   Mo  MulP 7.69 7.69 sum 15.38 diff  0.00 (  0.01  77.72)  Ml 0.00 (180.00   0.00)  Ml+s 0.00 (  0.01  77.69)
    9   Mo  MulP 6.42 6.42 sum 12.83 diff  0.00 (  0.00   6.37)  Ml 0.00 (  0.00   0.00)  Ml+s 0.00 (  0.00   6.37)
   10   Mo  MulP 5.93 5.93 sum 11.86 diff  0.00 (  0.00 259.42)  Ml 0.00 (180.00   0.00)  Ml+s 0.00 (  0.00 259.50)
   11   Mo  MulP 7.69 7.69 sum 15.38 diff  0.00 (  0.01  80.64)  Ml 0.00 (180.00   0.00)  Ml+s 0.00 (  0.01  80.62)
   12   Mo  MulP 6.42 6.42 sum 12.83 diff  0.00 (  0.00   0.75)  Ml 0.00 (  0.00   0.00)  Ml+s 0.00 (  0.00   0.75)
   13   Se  MulP 3.29 3.29 sum  6.58 diff  0.00 ( 90.00 168.90)  Ml 0.00 ( 40.61  32.82)  Ml+s 0.00 ( 90.00 168.90)
   14   Se  MulP 3.12 3.12 sum  6.24 diff  0.00 ( 90.00 256.22)  Ml 0.00 (138.23 242.45)  Ml+s 0.00 ( 90.00 256.22)
   15   Se  MulP 3.07 3.07 sum  6.14 diff  0.00 ( 90.00  44.72)  Ml 0.00 (154.52  58.93)  Ml+s 0.00 ( 90.00  44.72)
   16   Se  MulP 3.29 3.29 sum  6.58 diff  0.00 ( 90.00 168.90)  Ml 0.00 ( 40.61  32.82)  Ml+s 0.00 ( 90.00 168.90)
   17   Se  MulP 3.12 3.12 sum  6.24 diff  0.00 ( 90.00 256.22)  Ml 0.00 (138.23 242.45)  Ml+s 0.00 ( 90.00 256.22)
   18   Se  MulP 3.07 3.07 sum  6.14 diff  0.00 ( 90.00  44.72)  Ml 0.00 (154.52  58.93)  Ml+s 0.00 ( 90.00  44.72)
   19   Se  MulP 3.29 3.29 sum  6.58 diff  0.00 ( 90.00 168.90)  Ml 0.00 ( 40.61  32.82)  Ml+s 0.00 ( 90.00 168.90)
   20   Se  MulP 3.12 3.12 sum  6.24 diff  0.00 ( 90.00 256.22)  Ml 0.00 (138.23 242.45)  Ml+s 0.00 ( 90.00 256.22)
     ..........
     ......

 Sum of MulP: up   =   156.01349 down          =   155.98651
              total=   312.00000 ideal(neutral)=   312.00000
<DFT>  Total Spin Moment    (muB)  0.000000011   Angles    0.000253816    44.984357706
<DFT>  Total Orbital Moment (muB)  0.000000007   Angles  179.999962202     0.000000000
<DFT>  Total Moment         (muB)  0.000000004   Angles    0.000712597    41.479131085
<DFT>  Mixing_weight= 0.129821060102
<DFT>  Uele   =  -67.789704446582  dUele     =  35.414831409067
<DFT>  NormRD =    6.376386259525  Criterion =   0.000000000001

******************* MD= 1  SCF=11 *******************
<Poisson>  Poisson's equation using FFT...
<Set_Hamiltonian>  Hamiltonian matrix for VNA+dVH+Vxc...
<Band>  Solving the eigenvalue problem...
 KGrids1:  -0.45000  -0.35000  -0.25000  -0.15000  -0.05000   0.05000   0.15000   0.25000   0.35000   0.45000 
 KGrids2:  -0.45000  -0.35000  -0.25000  -0.15000  -0.05000   0.05000   0.15000   0.25000   0.35000   0.45000 
 KGrids3:   0.00000 
<Band_DFT>  Eigen, time=28.337900
<Band_DFT>  DM, time=50.526888
    1   Mo  MulP 5.61 5.61 sum 11.23 diff  0.00 (  0.00  95.30)  Ml 0.00 (180.00   0.00)  Ml+s 0.00 (  0.00  95.29)
    2   Mo  MulP 5.94 5.94 sum 11.88 diff  0.00 (  0.00 -47.00)  Ml 0.00 (180.00   0.00)  Ml+s 0.00 (  0.00 -46.08)
    3   Mo  MulP 7.65 7.65 sum 15.30 diff  0.00 (  0.02  87.12)  Ml 0.00 (180.00   0.00)  Ml+s 0.00 (  0.02  87.10)
    4   Mo  MulP 5.61 5.61 sum 11.23 diff  0.00 (  0.00 105.21)  Ml 0.00 (180.00   0.00)  Ml+s 0.00 (  0.00 105.15)
    5   Mo  MulP 5.94 5.94 sum 11.88 diff  0.00 (  0.00 256.45)  Ml 0.00 (180.00   0.00)  Ml+s 0.00 (  0.00 256.59)
    6   Mo  MulP 7.65 7.65 sum 15.30 diff  0.00 (  0.02  86.48)  Ml 0.00 (180.00   0.00)  Ml+s 0.00 (  0.02  86.47)
    7   Mo  MulP 5.61 5.61 sum 11.23 diff  0.00 (  0.00 107.36)  Ml 0.00 (180.00   0.00)  Ml+s 0.00 (  0.00 107.27)
    8   Mo  MulP 5.94 5.94 sum 11.88 diff  0.00 (  0.00 214.88)  Ml 0.00 (180.00   0.00)  Ml+s 0.00 (  0.00 215.34)
    9   Mo  MulP 7.65 7.65 sum 15.30 diff  0.00 (  0.02  84.38)  Ml 0.00 (180.00   0.00)  Ml+s 0.00 (  0.02  84.38)
   10   Mo  MulP 5.61 5.61 sum 11.23 diff  0.00 (  0.00 101.83)  Ml 0.00 (180.00   0.00)  Ml+s 0.00 (  0.00 101.70)
   11   Mo  MulP 5.94 5.94 sum 11.88 diff  0.00 (  0.00 169.23)  Ml 0.00 (180.00   0.00)  Ml+s 0.00 (  0.00 169.21)
   12   Mo  MulP 7.65 7.65 sum 15.30 diff  0.00 (  0.02  86.76)  Ml 0.00 (180.00   0.00)  Ml+s 0.00 (  0.02  86.74)
   13   Se  MulP 3.40 3.40 sum  6.79 diff  0.00 ( 90.00  96.13)  Ml 0.00 (169.73  85.38)  Ml+s 0.00 ( 90.00  96.13)
   14   Se  MulP 3.29 3.29 sum  6.58 diff  0.00 ( 90.00 268.79)  Ml 0.00 (135.71  74.64)  Ml+s 0.00 ( 90.00 268.79)
   15   Se  MulP 3.21 3.21 sum  6.42 diff  0.00 ( 90.00  56.63)  Ml 0.00 (106.93 121.93)  Ml+s 0.00 ( 90.00  56.63)
   16   Se  MulP 3.40 3.40 sum  6.79 diff  0.00 ( 90.00  96.13)  Ml 0.00 (169.73  85.38)  Ml+s 0.00 ( 90.00  96.13)
   17   Se  MulP 3.29 3.29 sum  6.58 diff  0.00 ( 90.00 268.79)  Ml 0.00 (135.71  74.64)  Ml+s 0.00 ( 90.00 268.79)
   18   Se  MulP 3.21 3.21 sum  6.42 diff  0.00 ( 90.00  56.63)  Ml 0.00 (106.93 121.93)  Ml+s 0.00 ( 90.00  56.63)
   19   Se  MulP 3.40 3.40 sum  6.79 diff  0.00 ( 90.00  96.13)  Ml 0.00 (169.73  85.37)  Ml+s 0.00 ( 90.00  96.13)
   20   Se  MulP 3.29 3.29 sum  6.58 diff  0.00 ( 90.00 268.79)  Ml 0.00 (135.71  74.64)  Ml+s 0.00 ( 90.00 268.79)
     ..........
     ......

 Sum of MulP: up   =   156.00933 down          =   155.99067
              total=   312.00000 ideal(neutral)=   312.00000
<DFT>  Total Spin Moment    (muB)  0.000000009   Angles  179.999673964    35.316746259
<DFT>  Total Orbital Moment (muB)  0.000000003   Angles  179.999898786     0.000000000
<DFT>  Total Moment         (muB)  0.000000012   Angles  179.999728820    32.513582512
<DFT>  Mixing_weight= 0.129821060102
<DFT>  Uele   =  -54.000652067684  dUele     =  13.789052378898
<DFT>  NormRD =    6.054747028387  Criterion =   0.000000000001

******************* MD= 1  SCF=12 *******************
<Poisson>  Poisson's equation using FFT...
<Set_Hamiltonian>  Hamiltonian matrix for VNA+dVH+Vxc...
<Band>  Solving the eigenvalue problem...
 KGrids1:  -0.45000  -0.35000  -0.25000  -0.15000  -0.05000   0.05000   0.15000   0.25000   0.35000   0.45000 
 KGrids2:  -0.45000  -0.35000  -0.25000  -0.15000  -0.05000   0.05000   0.15000   0.25000   0.35000   0.45000 
 KGrids3:   0.00000 
<Band_DFT>  Eigen, time=27.981423
<Band_DFT>  DM, time=50.386693
    1   Mo  MulP 6.30 6.30 sum 12.59 diff  0.00 (  0.00 -20.33)  Ml 0.00 (  0.00   0.00)  Ml+s 0.00 (  0.00 -20.26)
    2   Mo  MulP 7.11 7.11 sum 14.23 diff  0.00 (  0.01  82.47)  Ml 0.00 (  0.00   0.00)  Ml+s 0.00 (  0.00  82.44)
    3   Mo  MulP 5.89 5.89 sum 11.77 diff  0.00 (  0.00  15.43)  Ml 0.00 (180.00   0.00)  Ml+s 0.00 (179.98  15.42)
    4   Mo  MulP 6.30 6.30 sum 12.59 diff  0.00 (  0.00 -21.14)  Ml 0.00 (  0.00   0.00)  Ml+s 0.00 (  0.00 -21.09)
    5   Mo  MulP 7.11 7.11 sum 14.23 diff  0.00 (  0.01  85.10)  Ml 0.00 (  0.00   0.00)  Ml+s 0.00 (  0.00  85.06)
    6   Mo  MulP 5.89 5.89 sum 11.77 diff  0.00 (  0.00  20.71)  Ml 0.00 (180.00   0.00)  Ml+s 0.00 (179.98  20.67)
    7   Mo  MulP 6.30 6.30 sum 12.59 diff  0.00 (  0.00  -6.14)  Ml 0.00 (  0.00   0.00)  Ml+s 0.00 (  0.00  -6.13)
    8   Mo  MulP 7.11 7.11 sum 14.23 diff  0.00 (  0.01  86.18)  Ml 0.00 (  0.00   0.00)  Ml+s 0.00 (  0.00  86.14)
    9   Mo  MulP 5.89 5.89 sum 11.77 diff  0.00 (  0.00   4.54)  Ml 0.00 (180.00   0.00)  Ml+s 0.00 (179.98   4.54)
   10   Mo  MulP 6.30 6.30 sum 12.59 diff  0.00 (  0.00 -26.31)  Ml 0.00 (  0.00   0.00)  Ml+s 0.00 (  0.00 -26.29)
   11   Mo  MulP 7.11 7.11 sum 14.23 diff  0.00 (  0.01  89.79)  Ml 0.00 (  0.00   0.00)  Ml+s 0.00 (  0.00  89.79)
   12   Mo  MulP 5.89 5.89 sum 11.77 diff  0.00 (  0.00  -3.70)  Ml 0.00 (180.00   0.00)  Ml+s 0.00 (179.98  -3.68)
   13   Se  MulP 3.34 3.34 sum  6.68 diff  0.00 ( 90.00 201.02)  Ml 0.00 ( 78.00 -71.29)  Ml+s 0.00 ( 90.00 201.02)
   14   Se  MulP 3.32 3.32 sum  6.64 diff  0.00 ( 90.00 -84.44)  Ml 0.00 ( 67.45 107.25)  Ml+s 0.00 ( 90.00 -84.44)
   15   Se  MulP 3.20 3.20 sum  6.39 diff  0.00 ( 90.00  27.08)  Ml 0.00 ( 94.49  -9.56)  Ml+s 0.00 ( 90.00  27.08)
   16   Se  MulP 3.34 3.34 sum  6.68 diff  0.00 ( 90.00 201.02)  Ml 0.00 ( 78.00 -71.27)  Ml+s 0.00 ( 90.00 201.02)
   17   Se  MulP 3.32 3.32 sum  6.64 diff  0.00 ( 90.00 -84.44)  Ml 0.00 ( 67.47 107.26)  Ml+s 0.00 ( 90.00 -84.44)
   18   Se  MulP 3.20 3.20 sum  6.39 diff  0.00 ( 90.00  27.08)  Ml 0.00 ( 94.47  -9.56)  Ml+s 0.00 ( 90.00  27.08)
   19   Se  MulP 3.34 3.34 sum  6.68 diff  0.00 ( 90.00 201.02)  Ml 0.00 ( 77.99 -71.24)  Ml+s 0.00 ( 90.00 201.02)
   20   Se  MulP 3.32 3.32 sum  6.64 diff  0.00 ( 90.00 -84.44)  Ml 0.00 ( 67.48 107.29)  Ml+s 0.00 ( 90.00 -84.44)
     ..........
     ......

 Sum of MulP: up   =   156.01056 down          =   155.98944
              total=   312.00000 ideal(neutral)=   312.00000
<DFT>  Total Spin Moment    (muB)  0.000000031   Angles  179.999900720    38.428980880
<DFT>  Total Orbital Moment (muB)  0.000000034   Angles    0.000008009     0.000000000
<DFT>  Total Moment         (muB)  0.000000003   Angles    0.001017971    35.465640159
<DFT>  Mixing_weight= 0.129821060102
<DFT>  Uele   =  -59.138286139024  dUele     =   5.137634071341
<DFT>  NormRD =    5.156539861067  Criterion =   0.000000000001

******************* MD= 1  SCF=13 *******************
<Poisson>  Poisson's equation using FFT...
<Set_Hamiltonian>  Hamiltonian matrix for VNA+dVH+Vxc...
<Band>  Solving the eigenvalue problem...
 KGrids1:  -0.45000  -0.35000  -0.25000  -0.15000  -0.05000   0.05000   0.15000   0.25000   0.35000   0.45000 
 KGrids2:  -0.45000  -0.35000  -0.25000  -0.15000  -0.05000   0.05000   0.15000   0.25000   0.35000   0.45000 
 KGrids3:   0.00000 
<Band_DFT>  Eigen, time=28.250266
<Band_DFT>  DM, time=50.523424
    1   Mo  MulP 6.04 6.04 sum 12.08 diff  0.00 (180.00  28.44)  Ml 0.00 (180.00   0.00)  Ml+s 0.00 (180.00  28.33)
    2   Mo  MulP 7.05 7.05 sum 14.11 diff  0.00 (179.99  63.96)  Ml 0.00 (  0.00   0.00)  Ml+s 0.00 (  0.00  63.91)
    3   Mo  MulP 6.03 6.03 sum 12.06 diff  0.00 (180.00 -23.20)  Ml 0.00 (180.00   0.00)  Ml+s 0.00 (180.00 -23.08)
    4   Mo  MulP 6.04 6.04 sum 12.08 diff  0.00 (180.00  43.17)  Ml 0.00 (180.00   0.00)  Ml+s 0.00 (180.00  42.98)
    5   Mo  MulP 7.05 7.05 sum 14.11 diff  0.00 (179.99  68.70)  Ml 0.00 (  0.00   0.00)  Ml+s 0.00 (  0.00  68.70)
    6   Mo  MulP 6.03 6.03 sum 12.06 diff  0.00 (179.99   0.40)  Ml 0.00 (180.00   0.00)  Ml+s 0.00 (180.00   0.40)
    7   Mo  MulP 6.04 6.04 sum 12.08 diff  0.00 (180.00  58.93)  Ml 0.00 (180.00   0.00)  Ml+s 0.00 (180.00  58.81)
    8   Mo  MulP 7.05 7.05 sum 14.11 diff  0.00 (179.99  72.51)  Ml 0.00 (  0.00   0.00)  Ml+s 0.00 (  0.00  72.42)
    9   Mo  MulP 6.03 6.03 sum 12.06 diff  0.00 (179.99 -23.81)  Ml 0.00 (180.00   0.00)  Ml+s 0.00 (180.00 -23.78)
   10   Mo  MulP 6.04 6.04 sum 12.08 diff  0.00 (180.00  28.92)  Ml 0.00 (180.00   0.00)  Ml+s 0.00 (180.00  28.82)
   11   Mo  MulP 7.05 7.05 sum 14.11 diff  0.00 (179.99  80.49)  Ml 0.00 (  0.00   0.00)  Ml+s 0.00 (  0.00  80.49)
   12   Mo  MulP 6.03 6.03 sum 12.06 diff  0.00 (179.99 -52.66)  Ml 0.00 (180.00   0.00)  Ml+s 0.00 (180.00 -52.39)
   13   Se  MulP 3.38 3.38 sum  6.75 diff  0.00 ( 90.00 184.33)  Ml 0.00 ( 95.90 -53.55)  Ml+s 0.00 ( 90.00 184.33)
   14   Se  MulP 3.33 3.32 sum  6.65 diff  0.00 ( 90.00 -86.08)  Ml 0.00 ( 78.40 -35.00)  Ml+s 0.00 ( 90.00 -86.08)
   15   Se  MulP 3.24 3.24 sum  6.48 diff  0.00 ( 90.00  27.50)  Ml 0.00 (100.16 -36.41)  Ml+s 0.00 ( 90.00  27.50)
   16   Se  MulP 3.38 3.38 sum  6.75 diff  0.00 ( 90.00 184.33)  Ml 0.00 ( 95.90 -53.55)  Ml+s 0.00 ( 90.00 184.33)
   17   Se  MulP 3.33 3.32 sum  6.65 diff  0.00 ( 90.00 -86.08)  Ml 0.00 ( 78.40 -35.00)  Ml+s 0.00 ( 90.00 -86.08)
   18   Se  MulP 3.24 3.24 sum  6.48 diff  0.00 ( 90.00  27.50)  Ml 0.00 (100.16 -36.41)  Ml+s 0.00 ( 90.00  27.50)
   19   Se  MulP 3.38 3.38 sum  6.75 diff  0.00 ( 90.00 184.33)  Ml 0.00 ( 95.90 -53.56)  Ml+s 0.00 ( 90.00 184.33)
   20   Se  MulP 3.33 3.32 sum  6.65 diff  0.00 ( 90.00 -86.08)  Ml 0.00 ( 78.40 -34.99)  Ml+s 0.00 ( 90.00 -86.08)
     ..........
     ......

 Sum of MulP: up   =   156.01030 down          =   155.98970
              total=   312.00000 ideal(neutral)=   312.00000
<DFT>  Total Spin Moment    (muB)  0.000000126   Angles  179.999971364    36.759191291
<DFT>  Total Orbital Moment (muB)  0.000000063   Angles    0.000003912     0.000000000
<DFT>  Total Moment         (muB)  0.000000062   Angles  179.999938957    34.520248846
<DFT>  Mixing_weight= 0.129821060102
<DFT>  Uele   =  -51.671344518724  dUele     =   7.466941620301
<DFT>  NormRD =    4.617110916820  Criterion =   0.000000000001

******************* MD= 1  SCF=14 *******************
<Poisson>  Poisson's equation using FFT...
<Set_Hamiltonian>  Hamiltonian matrix for VNA+dVH+Vxc...
<Band>  Solving the eigenvalue problem...
 KGrids1:  -0.45000  -0.35000  -0.25000  -0.15000  -0.05000   0.05000   0.15000   0.25000   0.35000   0.45000 
 KGrids2:  -0.45000  -0.35000  -0.25000  -0.15000  -0.05000   0.05000   0.15000   0.25000   0.35000   0.45000 
 KGrids3:   0.00000 
<Band_DFT>  Eigen, time=28.276954
<Band_DFT>  DM, time=50.532207
    1   Mo  MulP 7.04 7.04 sum 14.08 diff  0.00 (  0.00 -81.58)  Ml 0.00 (  0.00   0.00)  Ml+s 0.00 (  0.00 -81.54)
    2   Mo  MulP 6.81 6.81 sum 13.62 diff  0.00 (  0.00 120.94)  Ml 0.00 (180.00   0.00)  Ml+s 0.00 (  0.01 120.91)
    3   Mo  MulP 6.36 6.36 sum 12.72 diff  0.00 (  0.00  22.20)  Ml 0.00 (180.00   0.00)  Ml+s 0.00 (180.00  22.17)
    4   Mo  MulP 7.04 7.04 sum 14.08 diff  0.00 (  0.00 -85.53)  Ml 0.00 (  0.00   0.00)  Ml+s 0.00 (  0.00 -85.46)
    5   Mo  MulP 6.81 6.81 sum 13.63 diff  0.00 (  0.00 123.98)  Ml 0.00 (180.00   0.00)  Ml+s 0.00 (  0.01 123.96)
    6   Mo  MulP 6.36 6.36 sum 12.73 diff  0.00 (  0.00  25.54)  Ml 0.00 (180.00   0.00)  Ml+s 0.00 (180.00  25.51)
    7   Mo  MulP 7.04 7.04 sum 14.08 diff  0.00 (  0.00 -87.43)  Ml 0.00 (  0.00   0.00)  Ml+s 0.00 (  0.00 -87.41)
    8   Mo  MulP 6.81 6.81 sum 13.63 diff  0.00 (  0.00 123.09)  Ml 0.00 (180.00   0.00)  Ml+s 0.00 (  0.01 123.07)
    9   Mo  MulP 6.36 6.36 sum 12.73 diff  0.00 (  0.00  15.15)  Ml 0.00 (180.00   0.00)  Ml+s 0.00 (180.00  15.14)
   10   Mo  MulP 7.04 7.04 sum 14.08 diff  0.00 (  0.00 -83.33)  Ml 0.00 (  0.00   0.00)  Ml+s 0.00 (  0.00 -83.27)
   11   Mo  MulP 6.81 6.81 sum 13.62 diff  0.00 (  0.00 124.87)  Ml 0.00 (180.00   0.00)  Ml+s 0.00 (  0.01 124.85)
   12   Mo  MulP 6.36 6.36 sum 12.73 diff  0.00 (  0.00  12.98)  Ml 0.00 (180.00   0.00)  Ml+s 0.00 (180.00  12.96)
   13   Se  MulP 3.19 3.19 sum  6.39 diff  0.00 ( 90.00 190.92)  Ml 0.00 ( 81.70  67.78)  Ml+s 0.00 ( 90.00 190.92)
   14   Se  MulP 3.18 3.18 sum  6.37 diff  0.00 ( 90.00 264.25)  Ml 0.00 ( 95.79 -37.78)  Ml+s 0.00 ( 90.00 264.25)
   15   Se  MulP 3.02 3.01 sum  6.03 diff  0.00 ( 90.00  32.98)  Ml 0.00 ( 73.68 206.76)  Ml+s 0.00 ( 90.00  32.98)
   16   Se  MulP 3.19 3.19 sum  6.39 diff  0.00 ( 90.00 190.93)  Ml 0.00 ( 81.27  68.36)  Ml+s 0.00 ( 90.00 190.93)
   17   Se  MulP 3.18 3.18 sum  6.37 diff  0.00 ( 90.00 264.25)  Ml 0.00 ( 96.18 -37.74)  Ml+s 0.00 ( 90.00 264.25)
   18   Se  MulP 3.02 3.01 sum  6.03 diff  0.00 ( 90.00  32.97)  Ml 0.00 ( 74.60 206.24)  Ml+s 0.00 ( 90.00  32.97)
   19   Se  MulP 3.19 3.19 sum  6.39 diff  0.00 ( 90.00 190.91)  Ml 0.00 ( 81.47  68.81)  Ml+s 0.00 ( 90.00 190.91)
   20   Se  MulP 3.18 3.18 sum  6.37 diff  0.00 ( 90.00 264.23)  Ml 0.00 ( 94.38 -38.43)  Ml+s 0.00 ( 90.00 264.23)
     ..........
     ......

 Sum of MulP: up   =   156.01150 down          =   155.98850
              total=   312.00000 ideal(neutral)=   312.00000
<DFT>  Total Spin Moment    (muB)  0.000000216   Angles    0.000016177    37.397484234
<DFT>  Total Orbital Moment (muB)  0.000000091   Angles  179.999995482     0.000000000
<DFT>  Total Moment         (muB)  0.000000126   Angles    0.000030498    33.676348615
<DFT>  Mixing_weight= 0.129821060102
<DFT>  Uele   =  -69.238687100706  dUele     =  17.567342581983
<DFT>  NormRD =    4.354699448395  Criterion =   0.000000000001

******************* MD= 1  SCF=15 *******************
<Poisson>  Poisson's equation using FFT...
<Set_Hamiltonian>  Hamiltonian matrix for VNA+dVH+Vxc...
<Band>  Solving the eigenvalue problem...
 KGrids1:  -0.45000  -0.35000  -0.25000  -0.15000  -0.05000   0.05000   0.15000   0.25000   0.35000   0.45000 
 KGrids2:  -0.45000  -0.35000  -0.25000  -0.15000  -0.05000   0.05000   0.15000   0.25000   0.35000   0.45000 
 KGrids3:   0.00000 
<Band_DFT>  Eigen, time=28.265076
<Band_DFT>  DM, time=50.679935
    1   Mo  MulP 6.46 6.46 sum 12.91 diff  0.00 (  0.00  56.44)  Ml 0.00 (180.00   0.00)  Ml+s 0.00 (  0.00  54.08)
    2   Mo  MulP 6.59 6.59 sum 13.18 diff  0.00 (  0.00  19.51)  Ml 0.00 (  0.00 -28.01)  Ml+s 0.00 (  0.00  15.50)
    3   Mo  MulP 6.15 6.15 sum 12.30 diff  0.00 (  0.00  -3.04)  Ml 0.00 (  0.00 -53.36)  Ml+s 0.00 (  0.00  -3.63)
    4   Mo  MulP 6.46 6.46 sum 12.91 diff  0.00 (  0.00  93.59)  Ml 0.00 (180.00   0.00)  Ml+s 0.00 (  0.00  92.26)
    5   Mo  MulP 6.59 6.59 sum 13.18 diff  0.00 (  0.00  98.28)  Ml 0.00 (  0.00   0.00)  Ml+s 0.00 (  0.00  96.53)
    6   Mo  MulP 6.15 6.15 sum 12.30 diff  0.00 (  0.00 -29.28)  Ml 0.00 (  0.00   0.00)  Ml+s 0.00 (  0.00 -28.74)
    7   Mo  MulP 6.46 6.46 sum 12.91 diff  0.00 (  0.00  48.11)  Ml 0.00 (180.00   0.00)  Ml+s 0.00 (  0.00  46.91)
    8   Mo  MulP 6.59 6.59 sum 13.18 diff  0.00 (  0.00  94.44)  Ml 0.00 (  0.00   0.00)  Ml+s 0.00 (  0.00  93.22)
    9   Mo  MulP 6.15 6.15 sum 12.30 diff  0.00 (  0.00 252.35)  Ml 0.00 (  0.00   0.00)  Ml+s 0.00 (  0.00 254.11)
   10   Mo  MulP 6.46 6.46 sum 12.91 diff  0.00 (  0.00 129.57)  Ml 0.00 (180.00   0.00)  Ml+s 0.00 (  0.00 127.67)
   11   Mo  MulP 6.59 6.59 sum 13.18 diff  0.00 (  0.00  97.14)  Ml 0.00 (  0.00   0.00)  Ml+s 0.00 (  0.00  96.36)
   12   Mo  MulP 6.15 6.15 sum 12.30 diff  0.00 (  0.00 -81.98)  Ml 0.00 (  0.00   0.00)  Ml+s 0.00 (  0.00 -81.98)
   13   Se  MulP 3.34 3.34 sum  6.68 diff  0.00 ( 90.00 180.42)  Ml 0.00 ( 52.82  84.01)  Ml+s 0.00 ( 90.00 180.42)
   14   Se  MulP 3.32 3.32 sum  6.64 diff  0.00 ( 90.00 -83.27)  Ml 0.00 (110.04 -11.46)  Ml+s 0.00 ( 90.00 -83.27)
   15   Se  MulP 3.24 3.24 sum  6.48 diff  0.00 ( 90.00  34.47)  Ml 0.00 (103.97 127.66)  Ml+s 0.00 ( 90.00  34.47)
   16   Se  MulP 3.34 3.34 sum  6.68 diff  0.00 ( 90.00 180.46)  Ml 0.00 ( 53.00  84.64)  Ml+s 0.00 ( 90.00 180.46)
   17   Se  MulP 3.32 3.32 sum  6.64 diff  0.00 ( 90.00 -83.29)  Ml 0.00 (110.12 -11.83)  Ml+s 0.00 ( 90.00 -83.29)
   18   Se  MulP 3.24 3.24 sum  6.48 diff  0.00 ( 90.00  34.50)  Ml 0.00 (104.19 127.45)  Ml+s 0.00 ( 90.00  34.50)
   19   Se  MulP 3.34 3.34 sum  6.68 diff  0.00 ( 90.00 180.47)  Ml 0.00 ( 52.12  84.98)  Ml+s 0.00 ( 90.00 180.47)
   20   Se  MulP 3.32 3.32 sum  6.64 diff  0.00 ( 90.00 -83.30)  Ml 0.00 (110.08 -11.71)  Ml+s 0.00 ( 90.00 -83.30)
     ..........
     ......

 Sum of MulP: up   =   156.00833 down          =   155.99167
              total=   312.00000 ideal(neutral)=   312.00000
<DFT>  Total Spin Moment    (muB)  0.000000897   Angles    0.000088257     4.855807190
<DFT>  Total Orbital Moment (muB)  0.000000312   Angles    0.000016289   -44.079656067
<DFT>  Total Moment         (muB)  0.000001208   Angles    0.000068334     2.199853333
<DFT>  Mixing_weight= 0.129821060102
<DFT>  Uele   =  -48.685118967954  dUele     =  20.553568132753
<DFT>  NormRD =    2.911162607362  Criterion =   0.000000000001

******************* MD= 1  SCF=16 *******************
<Poisson>  Poisson's equation using FFT...
<Set_Hamiltonian>  Hamiltonian matrix for VNA+dVH+Vxc...
<Band>  Solving the eigenvalue problem...
 KGrids1:  -0.45000  -0.35000  -0.25000  -0.15000  -0.05000   0.05000   0.15000   0.25000   0.35000   0.45000 
 KGrids2:  -0.45000  -0.35000  -0.25000  -0.15000  -0.05000   0.05000   0.15000   0.25000   0.35000   0.45000 
 KGrids3:   0.00000 
<Band_DFT>  Eigen, time=28.419163
<Band_DFT>  DM, time=50.596118
    1   Mo  MulP 6.29 6.29 sum 12.57 diff  0.00 (180.00  39.03)  Ml 0.00 (  0.00   0.00)  Ml+s 0.00 (180.00  38.99)
    2   Mo  MulP 6.69 6.69 sum 13.38 diff  0.00 (  0.00  59.60)  Ml 0.00 (180.00   0.00)  Ml+s 0.00 (  0.03  59.36)
    3   Mo  MulP 6.51 6.51 sum 13.02 diff  0.00 (  0.00 -32.67)  Ml 0.00 (180.00   0.00)  Ml+s 0.00 (180.00 -32.57)
    4   Mo  MulP 6.28 6.28 sum 12.57 diff  0.00 (180.00  56.76)  Ml 0.00 (  0.00   0.00)  Ml+s 0.00 (180.00  56.63)
    5   Mo  MulP 6.69 6.69 sum 13.39 diff  0.00 (  0.00  68.45)  Ml 0.00 (180.00   0.00)  Ml+s 0.00 (  0.00  68.32)
    6   Mo  MulP 6.51 6.51 sum 13.02 diff  0.00 (  0.00 -42.14)  Ml 0.00 (180.00   0.00)  Ml+s 0.00 (180.00 -42.14)
    7   Mo  MulP 6.28 6.28 sum 12.56 diff  0.00 (180.00  57.64)  Ml 0.00 (  0.00   0.00)  Ml+s 0.00 (180.00  57.49)
    8   Mo  MulP 6.69 6.69 sum 13.38 diff  0.00 (  0.00  71.57)  Ml 0.00 (180.00   0.00)  Ml+s 0.00 (  0.00  71.44)
    9   Mo  MulP 6.52 6.52 sum 13.04 diff  0.00 (  0.00 -47.94)  Ml 0.00 (180.00   0.00)  Ml+s 0.00 (180.00 -47.90)
   10   Mo  MulP 6.28 6.28 sum 12.57 diff  0.00 (180.00  53.32)  Ml 0.00 (  0.00   0.00)  Ml+s 0.00 (180.00  53.14)
   11   Mo  MulP 6.69 6.69 sum 13.37 diff  0.00 (  0.00  83.03)  Ml 0.00 (180.00   0.00)  Ml+s 0.00 (  0.04  82.99)
   12   Mo  MulP 6.52 6.52 sum 13.03 diff  0.00 (  0.00 -54.01)  Ml 0.00 (180.00   0.00)  Ml+s 0.00 (180.00 -53.96)
   13   Se  MulP 3.29 3.29 sum  6.57 diff  0.00 ( 90.00 185.21)  Ml 0.00 ( 81.28 268.42)  Ml+s 0.00 ( 90.00 185.22)
   14   Se  MulP 3.28 3.28 sum  6.56 diff  0.00 ( 90.00 269.05)  Ml 0.00 ( 92.09 -63.76)  Ml+s 0.00 ( 90.00 269.05)
   15   Se  MulP 3.19 3.19 sum  6.38 diff  0.00 ( 90.00  31.80)  Ml 0.00 ( 99.17 -74.28)  Ml+s 0.00 ( 90.00  31.80)
   16   Se  MulP 3.29 3.29 sum  6.57 diff  0.00 ( 90.00 184.78)  Ml 0.00 ( 82.00 268.08)  Ml+s 0.00 ( 90.00 184.79)
   17   Se  MulP 3.28 3.28 sum  6.56 diff  0.00 ( 90.00 269.16)  Ml 0.00 ( 92.09 -63.24)  Ml+s 0.00 ( 90.00 269.16)
   18   Se  MulP 3.19 3.19 sum  6.38 diff  0.00 ( 90.00  31.70)  Ml 0.00 ( 98.92 -73.38)  Ml+s 0.00 ( 90.00  31.70)
   19   Se  MulP 3.29 3.29 sum  6.57 diff  0.00 ( 90.00 184.63)  Ml 0.00 ( 81.64 268.82)  Ml+s 0.00 ( 90.00 184.63)
   20   Se  MulP 3.28 3.28 sum  6.56 diff  0.00 ( 90.00 269.22)  Ml 0.00 ( 91.89 -62.81)  Ml+s 0.00 ( 90.00 269.22)
     ..........
     ......

 Sum of MulP: up   =   156.00831 down          =   155.99169
              total=   312.00000 ideal(neutral)=   312.00000
<DFT>  Total Spin Moment    (muB)  0.000000184   Angles    0.000077005    14.846019353
<DFT>  Total Orbital Moment (muB)  0.000000079   Angles  179.999994877     0.000000000
<DFT>  Total Moment         (muB)  0.000000105   Angles    0.000138824    14.437438951
<DFT>  Mixing_weight= 0.129821060102
<DFT>  Uele   =  -46.587404300306  dUele     =   2.097714667648
<DFT>  NormRD =    1.248684069935  Criterion =   0.000000000001

******************* MD= 1  SCF=17 *******************
<Poisson>  Poisson's equation using FFT...
<Set_Hamiltonian>  Hamiltonian matrix for VNA+dVH+Vxc...
<Band>  Solving the eigenvalue problem...
 KGrids1:  -0.45000  -0.35000  -0.25000  -0.15000  -0.05000   0.05000   0.15000   0.25000   0.35000   0.45000 
 KGrids2:  -0.45000  -0.35000  -0.25000  -0.15000  -0.05000   0.05000   0.15000   0.25000   0.35000   0.45000 
 KGrids3:   0.00000 
<Band_DFT>  Eigen, time=28.464020
<Band_DFT>  DM, time=50.721701
    1   Mo  MulP 6.56 6.56 sum 13.12 diff  0.00 (180.00 228.65)  Ml 0.00 (  0.00   0.00)  Ml+s 0.00 (  0.02 228.68)
    2   Mo  MulP 6.39 6.39 sum 12.79 diff  0.00 (179.99 253.36)  Ml 0.00 (180.00   0.00)  Ml+s 0.00 (180.00 253.51)
    3   Mo  MulP 6.45 6.45 sum 12.89 diff  0.00 (  0.01 105.93)  Ml 0.00 (180.00   0.00)  Ml+s 0.00 (180.00 105.88)
    4   Mo  MulP 6.58 6.58 sum 13.16 diff  0.00 (179.99 221.07)  Ml 0.00 (  0.00   0.00)  Ml+s 0.00 (  0.01 221.12)
    5   Mo  MulP 6.35 6.35 sum 12.70 diff  0.00 (  0.26 239.44)  Ml 0.00 (180.00   0.00)  Ml+s 0.00 (180.00 239.48)
    6   Mo  MulP 6.43 6.43 sum 12.86 diff  0.00 (  0.01 117.31)  Ml 0.00 (180.00   0.00)  Ml+s 0.00 (180.00 117.28)
    7   Mo  MulP 6.62 6.62 sum 13.23 diff  0.00 (180.00 228.99)  Ml 0.00 (  0.00   0.00)  Ml+s 0.00 (  0.01 229.15)
    8   Mo  MulP 6.37 6.37 sum 12.74 diff  0.00 (179.99 239.55)  Ml 0.00 (180.00   0.00)  Ml+s 0.00 (180.00 239.65)
    9   Mo  MulP 6.39 6.39 sum 12.77 diff  0.00 (  0.00 117.29)  Ml 0.00 (180.00   0.00)  Ml+s 0.00 (179.99 117.26)
   10   Mo  MulP 6.59 6.59 sum 13.19 diff  0.00 (180.00 239.85)  Ml 0.00 (  0.00   0.00)  Ml+s 0.00 (  0.03 239.92)
   11   Mo  MulP 6.41 6.41 sum 12.81 diff  0.00 (180.00 235.00)  Ml 0.00 (180.00   0.00)  Ml+s 0.00 (180.00 235.03)
   12   Mo  MulP 6.41 6.41 sum 12.81 diff  0.00 (  0.01 113.94)  Ml 0.00 (180.00   0.00)  Ml+s 0.00 (179.99 113.89)
   13   Se  MulP 3.31 3.31 sum  6.62 diff  0.00 ( 90.00 185.09)  Ml 0.00 ( 79.68 123.80)  Ml+s 0.00 ( 90.00 185.09)
   14   Se  MulP 3.27 3.27 sum  6.54 diff  0.00 ( 90.00 265.12)  Ml 0.00 (106.05 134.07)  Ml+s 0.00 ( 90.00 265.12)
   15   Se  MulP 3.23 3.23 sum  6.45 diff  0.00 ( 90.00  40.47)  Ml 0.00 ( 90.31  90.53)  Ml+s 0.00 ( 90.00  40.47)
   16   Se  MulP 3.31 3.31 sum  6.62 diff  0.00 ( 90.00 186.54)  Ml 0.00 ( 92.57 121.80)  Ml+s 0.00 ( 90.00 186.54)
   17   Se  MulP 3.27 3.27 sum  6.54 diff  0.00 ( 90.00 264.41)  Ml 0.00 (101.20 117.33)  Ml+s 0.00 ( 90.00 264.41)
   18   Se  MulP 3.23 3.23 sum  6.45 diff  0.00 ( 90.00  42.71)  Ml 0.00 ( 88.39  90.80)  Ml+s 0.00 ( 90.00  42.71)
   19   Se  MulP 3.31 3.31 sum  6.62 diff  0.00 ( 90.00 188.58)  Ml 0.00 ( 91.82 103.44)  Ml+s 0.00 ( 90.00 188.58)
   20   Se  MulP 3.27 3.27 sum  6.55 diff  0.00 ( 90.00 264.34)  Ml 0.00 ( 97.79 109.97)  Ml+s 0.00 ( 90.00 264.34)
     ..........
     ......

 Sum of MulP: up   =   156.00701 down          =   155.99299
              total=   312.00000 ideal(neutral)=   312.00000
<DFT>  Total Spin Moment    (muB)  0.000000154   Angles    0.000142787    19.216819089
<DFT>  Total Orbital Moment (muB)  0.000000154   Angles  179.999997042     0.000000000
<DFT>  Total Moment         (muB)  0.000000000   Angles    0.063710263    18.834558484
<DFT>  Mixing_weight= 0.129821060102
<DFT>  Uele   =  -45.391314500748  dUele     =   1.196089799558
<DFT>  NormRD =    1.486692318625  Criterion =   0.000000000001

******************* MD= 1  SCF=18 *******************
<Poisson>  Poisson's equation using FFT...
<Set_Hamiltonian>  Hamiltonian matrix for VNA+dVH+Vxc...
<Band>  Solving the eigenvalue problem...
 KGrids1:  -0.45000  -0.35000  -0.25000  -0.15000  -0.05000   0.05000   0.15000   0.25000   0.35000   0.45000 
 KGrids2:  -0.45000  -0.35000  -0.25000  -0.15000  -0.05000   0.05000   0.15000   0.25000   0.35000   0.45000 
 KGrids3:   0.00000 
<Band_DFT>  Eigen, time=28.669560
<Band_DFT>  DM, time=50.748635
    1   Mo  MulP 6.65 6.65 sum 13.30 diff  0.00 (  0.04  52.39)  Ml 0.00 (  0.00   0.00)  Ml+s 0.00 (  0.03  52.36)
    2   Mo  MulP 6.39 6.39 sum 12.78 diff  0.00 (  0.01  51.32)  Ml 0.00 (  0.00   0.00)  Ml+s 0.00 (  0.00  51.06)
    3   Mo  MulP 6.29 6.29 sum 12.59 diff  0.00 (  0.01 -36.69)  Ml 0.00 (  0.00   0.00)  Ml+s 0.00 (  0.00 -36.63)
    4   Mo  MulP 6.54 6.54 sum 13.07 diff  0.00 (  0.02 153.74)  Ml 0.00 (  0.00 217.73)  Ml+s 0.00 (  0.01 154.12)
    5   Mo  MulP 6.63 6.63 sum 13.26 diff  0.00 (  0.02  62.13)  Ml 0.00 (  0.00 113.35)  Ml+s 0.00 (  0.00  62.31)
    6   Mo  MulP 6.40 6.40 sum 12.80 diff  0.00 (  0.01 -79.61)  Ml 0.00 (  0.00   0.00)  Ml+s 0.00 (  0.01 -79.55)
    7   Mo  MulP 6.29 6.29 sum 12.58 diff  0.00 (  0.00 -41.97)  Ml 0.00 (  0.00   0.00)  Ml+s 0.00 (  0.00 -41.26)
    8   Mo  MulP 6.53 6.53 sum 13.05 diff  0.00 (  0.01  35.89)  Ml 0.00 (  0.00 220.73)  Ml+s 0.00 (  0.00  35.87)
    9   Mo  MulP 6.69 6.69 sum 13.37 diff  0.00 (  0.02 -68.31)  Ml 0.00 (180.00 -36.83)  Ml+s 0.00 (179.96 -68.26)
   10   Mo  MulP 6.44 6.44 sum 12.88 diff  0.00 (  0.03  33.16)  Ml 0.00 (  0.00   0.00)  Ml+s 0.00 (  0.02  33.13)
   11   Mo  MulP 6.31 6.31 sum 12.61 diff  0.00 (  0.01  68.98)  Ml 0.00 (  0.00 139.30)  Ml+s 0.00 (  0.00  69.24)
   12   Mo  MulP 6.57 6.57 sum 13.13 diff  0.00 (  0.01 261.70)  Ml 0.00 (180.00 115.25)  Ml+s 0.00 (179.97 261.44)
   13   Se  MulP 3.29 3.29 sum  6.58 diff  0.00 ( 90.00 205.11)  Ml 0.00 (128.95  95.02)  Ml+s 0.00 ( 90.00 205.11)
   14   Se  MulP 3.29 3.29 sum  6.58 diff  0.00 ( 90.00 264.32)  Ml 0.00 ( 53.79 122.21)  Ml+s 0.00 ( 90.00 264.32)
   15   Se  MulP 3.22 3.22 sum  6.44 diff  0.00 ( 90.00  40.53)  Ml 0.00 ( 94.80  57.18)  Ml+s 0.00 ( 90.00  40.53)
   16   Se  MulP 3.29 3.29 sum  6.59 diff  0.00 ( 90.00 188.55)  Ml 0.00 ( 86.55  98.32)  Ml+s 0.00 ( 89.99 188.55)
   17   Se  MulP 3.27 3.27 sum  6.54 diff  0.00 ( 90.00 265.64)  Ml 0.00 ( 51.19 139.95)  Ml+s 0.00 ( 90.00 265.64)
   18   Se  MulP 3.22 3.22 sum  6.45 diff  0.00 ( 90.00  28.65)  Ml 0.00 ( 96.75  46.65)  Ml+s 0.00 ( 90.00  28.65)
   19   Se  MulP 3.30 3.30 sum  6.61 diff  0.00 ( 90.00 179.01)  Ml 0.00 ( 72.59 167.38)  Ml+s 0.00 ( 90.00 179.01)
   20   Se  MulP 3.26 3.26 sum  6.51 diff  0.00 ( 90.00 -88.69)  Ml 0.00 ( 75.90 138.15)  Ml+s 0.00 ( 90.00 -88.69)
     ..........
     ......

 Sum of MulP: up   =   156.00722 down          =   155.99278
              total=   312.00000 ideal(neutral)=   312.00000
<DFT>  Total Spin Moment    (muB)  0.000000582   Angles    0.000380552   179.326540537
<DFT>  Total Orbital Moment (muB)  0.000000108   Angles    0.000074572   170.801950675
<DFT>  Total Moment         (muB)  0.000000691   Angles    0.000332416   179.027573269
<DFT>  Mixing_weight= 0.129821060102
<DFT>  Uele   =  -44.498077067303  dUele     =   0.893237433445
<DFT>  NormRD =    1.257371225548  Criterion =   0.000000000001

******************* MD= 1  SCF=19 *******************
<Poisson>  Poisson's equation using FFT...
<Set_Hamiltonian>  Hamiltonian matrix for VNA+dVH+Vxc...
<Band>  Solving the eigenvalue problem...
 KGrids1:  -0.45000  -0.35000  -0.25000  -0.15000  -0.05000   0.05000   0.15000   0.25000   0.35000   0.45000 
 KGrids2:  -0.45000  -0.35000  -0.25000  -0.15000  -0.05000   0.05000   0.15000   0.25000   0.35000   0.45000 
 KGrids3:   0.00000 
<Band_DFT>  Eigen, time=28.349498
<Band_DFT>  DM, time=50.632922
    1   Mo  MulP 6.31 6.31 sum 12.62 diff  0.00 (  0.00 175.77)  Ml 0.00 (  0.00   0.00)  Ml+s 0.00 (  0.00 175.73)
    2   Mo  MulP 6.53 6.53 sum 13.07 diff  0.00 (  0.00 226.80)  Ml 0.00 (  0.00   0.00)  Ml+s 0.00 (  0.00 226.89)
    3   Mo  MulP 6.67 6.67 sum 13.34 diff  0.00 (  0.01 113.40)  Ml 0.00 (180.00   0.00)  Ml+s 0.00 (179.99 113.36)
    4   Mo  MulP 6.40 6.40 sum 12.80 diff  0.00 (  0.01 215.03)  Ml 0.00 (  0.00   0.00)  Ml+s 0.00 (  0.00 215.11)
    5   Mo  MulP 6.36 6.36 sum 12.72 diff  0.00 (  0.00 240.93)  Ml 0.00 (  0.00   0.00)  Ml+s 0.00 (  0.00 240.94)
    6   Mo  MulP 6.59 6.59 sum 13.18 diff  0.00 (  0.00 133.71)  Ml 0.00 (180.00   0.00)  Ml+s 0.00 (180.00 133.71)
    7   Mo  MulP 6.61 6.61 sum 13.22 diff  0.00 (  0.02 237.25)  Ml 0.00 (  0.00   0.00)  Ml+s 0.00 (  0.01 237.25)
    8   Mo  MulP 6.45 6.45 sum 12.89 diff  0.00 (  0.00 240.38)  Ml 0.00 (  0.00   0.00)  Ml+s 0.00 (  0.00 240.45)
    9   Mo  MulP 6.35 6.35 sum 12.70 diff  0.00 (  0.00 136.70)  Ml 0.00 (180.00   0.00)  Ml+s 0.00 (  0.00 136.69)
   10   Mo  MulP 6.49 6.49 sum 12.98 diff  0.00 (  0.01 -47.58)  Ml 0.00 (  0.00   0.00)  Ml+s 0.00 (  0.00 -47.57)
   11   Mo  MulP 6.61 6.61 sum 13.22 diff  0.00 (  0.01 245.08)  Ml 0.00 (  0.00   0.00)  Ml+s 0.00 (  0.00 245.12)
   12   Mo  MulP 6.44 6.44 sum 12.89 diff  0.00 (  0.00 105.27)  Ml 0.00 (180.00   0.00)  Ml+s 0.00 (  0.01 105.20)
   13   Se  MulP 3.30 3.30 sum  6.59 diff  0.00 ( 90.00 180.26)  Ml 0.00 ( 69.06 177.14)  Ml+s 0.00 ( 89.99 180.26)
   14   Se  MulP 3.26 3.26 sum  6.51 diff  0.00 ( 90.00 268.57)  Ml 0.00 ( 69.47 147.72)  Ml+s 0.00 ( 90.00 268.57)
   15   Se  MulP 3.21 3.21 sum  6.42 diff  0.00 ( 90.00  36.06)  Ml 0.00 ( 97.55  66.81)  Ml+s 0.00 ( 90.00  36.06)
   16   Se  MulP 3.29 3.29 sum  6.59 diff  0.00 ( 89.99 190.21)  Ml 0.00 ( 87.34 199.54)  Ml+s 0.00 ( 89.99 190.21)
   17   Se  MulP 3.27 3.27 sum  6.55 diff  0.00 ( 90.00 263.37)  Ml 0.00 ( 75.37 121.50)  Ml+s 0.00 ( 90.00 263.37)
   18   Se  MulP 3.21 3.20 sum  6.41 diff  0.00 ( 90.00  44.09)  Ml 0.00 (101.34  73.11)  Ml+s 0.00 ( 90.00  44.09)
   19   Se  MulP 3.29 3.29 sum  6.57 diff  0.00 ( 89.99 201.29)  Ml 0.00 (136.85 159.41)  Ml+s 0.00 ( 90.00 201.29)
   20   Se  MulP 3.29 3.28 sum  6.57 diff  0.00 ( 90.00 263.34)  Ml 0.00 ( 43.89 118.53)  Ml+s 0.00 ( 90.00 263.33)
     ..........
     ......

 Sum of MulP: up   =   156.00729 down          =   155.99271
              total=   312.00000 ideal(neutral)=   312.00000
<DFT>  Total Spin Moment    (muB)  0.000000620   Angles    0.000016947    20.603951867
<DFT>  Total Orbital Moment (muB)  0.000000003   Angles  179.999977155     0.000000000
<DFT>  Total Moment         (muB)  0.000000617   Angles    0.000017118    20.483874190
<DFT>  Mixing_weight= 0.129821060102
<DFT>  Uele   =  -44.519767030336  dUele     =   0.021689963033
<DFT>  NormRD =    1.042617194251  Criterion =   0.000000000001

******************* MD= 1  SCF=20 *******************
<Poisson>  Poisson's equation using FFT...
<Set_Hamiltonian>  Hamiltonian matrix for VNA+dVH+Vxc...
<Band>  Solving the eigenvalue problem...
 KGrids1:  -0.45000  -0.35000  -0.25000  -0.15000  -0.05000   0.05000   0.15000   0.25000   0.35000   0.45000 
 KGrids2:  -0.45000  -0.35000  -0.25000  -0.15000  -0.05000   0.05000   0.15000   0.25000   0.35000   0.45000 
 KGrids3:   0.00000 
<Band_DFT>  Eigen, time=28.312473
<Band_DFT>  DM, time=50.369346
    1   Mo  MulP 6.43 6.43 sum 12.86 diff  0.00 (179.98 229.79)  Ml 0.00 (  0.00   0.00)  Ml+s 0.00 (179.97 229.80)
    2   Mo  MulP 6.57 6.57 sum 13.14 diff  0.00 (179.98 243.95)  Ml 0.00 (  0.00   0.00)  Ml+s 0.00 (179.97 243.96)
    3   Mo  MulP 6.58 6.58 sum 13.16 diff  0.00 (  0.16 123.73)  Ml 0.00 (180.00   0.00)  Ml+s 0.00 (179.99 123.73)
    4   Mo  MulP 6.41 6.41 sum 12.82 diff  0.00 (179.99 234.57)  Ml 0.00 (  0.00   0.00)  Ml+s 0.00 (179.98 234.62)
    5   Mo  MulP 6.52 6.52 sum 13.04 diff  0.00 (179.99 242.76)  Ml 0.00 (  0.00   0.00)  Ml+s 0.00 (179.95 242.78)
    6   Mo  MulP 6.58 6.58 sum 13.16 diff  0.00 (  0.20 123.98)  Ml 0.00 (180.00   0.00)  Ml+s 0.00 (179.99 123.98)
    7   Mo  MulP 6.37 6.37 sum 12.74 diff  0.00 (179.99 236.38)  Ml 0.00 (  0.00   0.00)  Ml+s 0.00 (179.98 236.41)
    8   Mo  MulP 6.51 6.51 sum 13.02 diff  0.00 (179.99 246.92)  Ml 0.00 (  0.00   0.00)  Ml+s 0.00 (179.94 246.93)
    9   Mo  MulP 6.62 6.62 sum 13.23 diff  0.00 (  0.27 121.26)  Ml 0.00 (180.00   0.00)  Ml+s 0.00 (179.99 121.25)
   10   Mo  MulP 6.36 6.36 sum 12.73 diff  0.00 (179.99 230.07)  Ml 0.00 (  0.00   0.00)  Ml+s 0.00 (179.97 230.08)
   11   Mo  MulP 6.54 6.54 sum 13.07 diff  0.00 (179.99 243.55)  Ml 0.00 (  0.00   0.00)  Ml+s 0.00 (179.98 243.56)
   12   Mo  MulP 6.63 6.63 sum 13.25 diff  0.00 (  0.33 120.68)  Ml 0.00 (180.00 140.23)  Ml+s 0.00 (179.99 120.69)
   13   Se  MulP 3.28 3.28 sum  6.55 diff  0.00 ( 90.00 182.60)  Ml 0.00 ( 81.87 251.28)  Ml+s 0.00 ( 90.00 182.61)
   14   Se  MulP 3.26 3.26 sum  6.51 diff  0.00 ( 90.00 262.86)  Ml 0.00 ( 64.40 -81.15)  Ml+s 0.00 ( 90.00 262.86)
   15   Se  MulP 3.20 3.20 sum  6.40 diff  0.00 ( 90.00  37.68)  Ml 0.00 ( 99.39 -68.36)  Ml+s 0.00 ( 90.00  37.68)
   16   Se  MulP 3.28 3.28 sum  6.55 diff  0.00 ( 90.00 179.92)  Ml 0.00 ( 82.53 252.11)  Ml+s 0.00 ( 90.00 179.93)
   17   Se  MulP 3.26 3.26 sum  6.52 diff  0.00 ( 90.00 263.67)  Ml 0.00 ( 62.14 -76.83)  Ml+s 0.00 ( 90.00 263.67)
   18   Se  MulP 3.20 3.20 sum  6.41 diff  0.00 ( 90.00  36.63)  Ml 0.00 ( 98.24 -60.65)  Ml+s 0.00 ( 90.00  36.62)
   19   Se  MulP 3.28 3.28 sum  6.55 diff  0.00 ( 90.00 180.66)  Ml 0.00 ( 80.36 250.73)  Ml+s 0.00 ( 90.00 180.66)
   20   Se  MulP 3.26 3.26 sum  6.51 diff  0.00 ( 90.00 263.37)  Ml 0.00 ( 65.11 -80.06)  Ml+s 0.00 ( 90.00 263.37)
     ..........
     ......

 Sum of MulP: up   =   156.00754 down          =   155.99246
              total=   312.00000 ideal(neutral)=   312.00000
[...]
   19   Se  MulP 3.29 3.29 sum  6.58 diff  0.00 ( 90.00 175.40)  Ml 0.00 ( 84.73 265.19)  Ml+s 0.00 ( 90.00 175.40)
   20   Se  MulP 3.27 3.27 sum  6.53 diff  0.00 ( 90.00 264.62)  Ml 0.00 ( 83.97 -72.00)  Ml+s 0.00 ( 90.00 264.62)
     ..........
     ......

 Sum of MulP: up   =   156.00760 down          =   155.99240
              total=   312.00000 ideal(neutral)=   312.00000
<DFT>  Total Spin Moment    (muB)  0.000000642   Angles  179.999981689    11.415941486
<DFT>  Total Orbital Moment (muB)  0.000000229   Angles  179.999998521     0.000000000
<DFT>  Total Moment         (muB)  0.000000871   Angles  179.999986102    11.099036561
<DFT>  Mixing_weight= 0.129821060102
<DFT>  Uele   =  -44.966312801392  dUele     =   0.000000000010
<DFT>  NormRD =    0.000000000008  Criterion =   0.000000000001

******************* MD= 1  SCF=73 *******************
<Poisson>  Poisson's equation using FFT...
<Set_Hamiltonian>  Hamiltonian matrix for VNA+dVH+Vxc...
<Band>  Solving the eigenvalue problem...
 KGrids1:  -0.45000  -0.35000  -0.25000  -0.15000  -0.05000   0.05000   0.15000   0.25000   0.35000   0.45000 
 KGrids2:  -0.45000  -0.35000  -0.25000  -0.15000  -0.05000   0.05000   0.15000   0.25000   0.35000   0.45000 
 KGrids3:   0.00000 
<Band_DFT>  Eigen, time=28.025595
<Band_DFT>  DM, time=50.059606
    1   Mo  MulP 6.30 6.30 sum 12.60 diff  0.00 (180.00   1.06)  Ml 0.00 (  0.00   0.00)  Ml+s 0.00 (180.00   1.06)
    2   Mo  MulP 6.55 6.55 sum 13.10 diff  0.00 (180.00  -9.13)  Ml 0.00 (  0.00   0.00)  Ml+s 0.00 (180.00  -9.05)
    3   Mo  MulP 6.60 6.60 sum 13.21 diff  0.00 (180.00 144.08)  Ml 0.00 (180.00   0.00)  Ml+s 0.00 (180.00 144.08)
    4   Mo  MulP 6.30 6.30 sum 12.60 diff  0.00 (180.00   8.83)  Ml 0.00 (  0.00   0.00)  Ml+s 0.00 (180.00   8.81)
    5   Mo  MulP 6.55 6.55 sum 13.10 diff  0.00 (180.00 -79.91)  Ml 0.00 (  0.00   0.00)  Ml+s 0.00 (180.00 -79.53)
    6   Mo  MulP 6.60 6.60 sum 13.21 diff  0.00 (180.00  88.79)  Ml 0.00 (180.00   0.00)  Ml+s 0.00 (180.00  88.79)
    7   Mo  MulP 6.30 6.30 sum 12.60 diff  0.00 (180.00   3.98)  Ml 0.00 (  0.00   0.00)  Ml+s 0.00 (180.00   3.97)
    8   Mo  MulP 6.55 6.55 sum 13.10 diff  0.00 (180.00 -74.18)  Ml 0.00 (  0.00   0.00)  Ml+s 0.00 (180.00 -72.85)
    9   Mo  MulP 6.60 6.60 sum 13.21 diff  0.00 (180.00 -14.73)  Ml 0.00 (180.00   0.00)  Ml+s 0.00 (180.00 -14.73)
   10   Mo  MulP 6.30 6.30 sum 12.60 diff  0.00 (180.00   0.37)  Ml 0.00 (  0.00   0.00)  Ml+s 0.00 (180.00   0.37)
   11   Mo  MulP 6.55 6.55 sum 13.10 diff  0.00 (180.00 154.38)  Ml 0.00 (  0.00   0.00)  Ml+s 0.00 (180.00 154.20)
   12   Mo  MulP 6.60 6.60 sum 13.21 diff  0.00 (180.00 241.89)  Ml 0.00 (180.00   0.00)  Ml+s 0.00 (180.00 241.89)
   13   Se  MulP 3.29 3.29 sum  6.58 diff  0.00 ( 90.00 175.40)  Ml 0.00 ( 84.73 265.19)  Ml+s 0.00 ( 90.00 175.40)
   14   Se  MulP 3.27 3.27 sum  6.53 diff  0.00 ( 90.00 264.62)  Ml 0.00 ( 83.97 -72.00)  Ml+s 0.00 ( 90.00 264.62)
   15   Se  MulP 3.22 3.21 sum  6.43 diff  0.00 ( 90.00  36.06)  Ml 0.00 ( 97.04 -74.71)  Ml+s 0.00 ( 90.00  36.06)
   16   Se  MulP 3.29 3.29 sum  6.58 diff  0.00 ( 90.00 175.40)  Ml 0.00 ( 84.73 265.19)  Ml+s 0.00 ( 90.00 175.40)
   17   Se  MulP 3.27 3.27 sum  6.53 diff  0.00 ( 90.00 264.62)  Ml 0.00 ( 83.97 -72.00)  Ml+s 0.00 ( 90.00 264.62)
   18   Se  MulP 3.22 3.21 sum  6.43 diff  0.00 ( 90.00  36.06)  Ml 0.00 ( 97.04 -74.71)  Ml+s 0.00 ( 90.00  36.06)
   19   Se  MulP 3.29 3.29 sum  6.58 diff  0.00 ( 90.00 175.40)  Ml 0.00 ( 84.73 265.19)  Ml+s 0.00 ( 90.00 175.40)
   20   Se  MulP 3.27 3.27 sum  6.53 diff  0.00 ( 90.00 264.62)  Ml 0.00 ( 83.97 -72.00)  Ml+s 0.00 ( 90.00 264.62)
     ..........
     ......

 Sum of MulP: up   =   156.00760 down          =   155.99240
              total=   312.00000 ideal(neutral)=   312.00000
<DFT>  Total Spin Moment    (muB)  0.000000642   Angles  179.999995564    49.965804929
<DFT>  Total Orbital Moment (muB)  0.000000229   Angles  179.999998292     0.000000000
<DFT>  Total Moment         (muB)  0.000000871   Angles  179.999996378    44.461729187
<DFT>  Mixing_weight= 0.129821060102
<DFT>  Uele   =  -44.966312801403  dUele     =   0.000000000012
<DFT>  NormRD =    0.000000000004  Criterion =   0.000000000001

******************* MD= 1  SCF=74 *******************
<Poisson>  Poisson's equation using FFT...
<Set_Hamiltonian>  Hamiltonian matrix for VNA+dVH+Vxc...
<Band>  Solving the eigenvalue problem...
 KGrids1:  -0.45000  -0.35000  -0.25000  -0.15000  -0.05000   0.05000   0.15000   0.25000   0.35000   0.45000 
 KGrids2:  -0.45000  -0.35000  -0.25000  -0.15000  -0.05000   0.05000   0.15000   0.25000   0.35000   0.45000 
 KGrids3:   0.00000 
<Band_DFT>  Eigen, time=27.970588
<Band_DFT>  DM, time=50.211090
    1   Mo  MulP 6.30 6.30 sum 12.60 diff  0.00 (180.00 178.60)  Ml 0.00 (  0.00   0.00)  Ml+s 0.00 (180.00 178.60)
    2   Mo  MulP 6.55 6.55 sum 13.10 diff  0.00 (180.00  -9.14)  Ml 0.00 (  0.00   0.00)  Ml+s 0.00 (180.00  -9.08)
    3   Mo  MulP 6.60 6.60 sum 13.21 diff  0.00 (180.00 147.10)  Ml 0.00 (180.00   0.00)  Ml+s 0.00 (180.00 147.10)
    4   Mo  MulP 6.30 6.30 sum 12.60 diff  0.00 (180.00 179.38)  Ml 0.00 (  0.00   0.00)  Ml+s 0.00 (180.00 179.38)
    5   Mo  MulP 6.55 6.55 sum 13.10 diff  0.00 (180.00 -76.45)  Ml 0.00 (  0.00   0.00)  Ml+s 0.00 (180.00 -76.11)
    6   Mo  MulP 6.60 6.60 sum 13.21 diff  0.00 (180.00  86.81)  Ml 0.00 (180.00   0.00)  Ml+s 0.00 (180.00  86.81)
    7   Mo  MulP 6.30 6.30 sum 12.60 diff  0.00 (180.00  14.03)  Ml 0.00 (  0.00   0.00)  Ml+s 0.00 (180.00  14.01)
    8   Mo  MulP 6.55 6.55 sum 13.10 diff  0.00 (180.00 -72.52)  Ml 0.00 (  0.00   0.00)  Ml+s 0.00 (180.00 -71.48)
    9   Mo  MulP 6.60 6.60 sum 13.21 diff  0.00 (180.00 -15.24)  Ml 0.00 (180.00   0.00)  Ml+s 0.00 (180.00 -15.24)
   10   Mo  MulP 6.30 6.30 sum 12.60 diff  0.00 (180.00   0.77)  Ml 0.00 (  0.00   0.00)  Ml+s 0.00 (180.00   0.77)
   11   Mo  MulP 6.55 6.55 sum 13.10 diff  0.00 (180.00 154.19)  Ml 0.00 (  0.00   0.00)  Ml+s 0.00 (180.00 154.01)
   12   Mo  MulP 6.60 6.60 sum 13.21 diff  0.00 (180.00 237.20)  Ml 0.00 (180.00   0.00)  Ml+s 0.00 (180.00 237.20)
   13   Se  MulP 3.29 3.29 sum  6.58 diff  0.00 ( 90.00 175.40)  Ml 0.00 ( 84.73 265.19)  Ml+s 0.00 ( 90.00 175.40)
   14   Se  MulP 3.27 3.27 sum  6.53 diff  0.00 ( 90.00 264.62)  Ml 0.00 ( 83.97 -72.00)  Ml+s 0.00 ( 90.00 264.62)
   15   Se  MulP 3.22 3.21 sum  6.43 diff  0.00 ( 90.00  36.06)  Ml 0.00 ( 97.04 -74.71)  Ml+s 0.00 ( 90.00  36.06)
   16   Se  MulP 3.29 3.29 sum  6.58 diff  0.00 ( 90.00 175.40)  Ml 0.00 ( 84.73 265.19)  Ml+s 0.00 ( 90.00 175.40)
   17   Se  MulP 3.27 3.27 sum  6.53 diff  0.00 ( 90.00 264.62)  Ml 0.00 ( 83.97 -72.00)  Ml+s 0.00 ( 90.00 264.62)
   18   Se  MulP 3.22 3.21 sum  6.43 diff  0.00 ( 90.00  36.06)  Ml 0.00 ( 97.04 -74.71)  Ml+s 0.00 ( 90.00  36.06)
   19   Se  MulP 3.29 3.29 sum  6.58 diff  0.00 ( 90.00 175.40)  Ml 0.00 ( 84.73 265.19)  Ml+s 0.00 ( 90.00 175.40)
   20   Se  MulP 3.27 3.27 sum  6.53 diff  0.00 ( 90.00 264.62)  Ml 0.00 ( 83.97 -72.00)  Ml+s 0.00 ( 90.00 264.62)
     ..........
     ......

 Sum of MulP: up   =   156.00760 down          =   155.99240
              total=   312.00000 ideal(neutral)=   312.00000
<DFT>  Total Spin Moment    (muB)  0.000000642   Angles  179.999986474    15.478979394
<DFT>  Total Orbital Moment (muB)  0.000000229   Angles  179.999998292     0.000000000
<DFT>  Total Moment         (muB)  0.000000871   Angles  179.999989578    14.820721090
<DFT>  Mixing_weight= 0.129821060102
<DFT>  Uele   =  -44.966312801392  dUele     =   0.000000000011
<DFT>  NormRD =    0.000000000005  Criterion =   0.000000000001

******************* MD= 1  SCF=75 *******************
<Poisson>  Poisson's equation using FFT...
<Set_Hamiltonian>  Hamiltonian matrix for VNA+dVH+Vxc...
<Band>  Solving the eigenvalue problem...
 KGrids1:  -0.45000  -0.35000  -0.25000  -0.15000  -0.05000   0.05000   0.15000   0.25000   0.35000   0.45000 
 KGrids2:  -0.45000  -0.35000  -0.25000  -0.15000  -0.05000   0.05000   0.15000   0.25000   0.35000   0.45000 
 KGrids3:   0.00000 
<Band_DFT>  Eigen, time=28.070386
<Band_DFT>  DM, time=49.731702
    1   Mo  MulP 6.30 6.30 sum 12.60 diff  0.00 (180.00   5.77)  Ml 0.00 (  0.00   0.00)  Ml+s 0.00 (180.00   5.76)
    2   Mo  MulP 6.55 6.55 sum 13.10 diff  0.00 (180.00  -9.39)  Ml 0.00 (  0.00   0.00)  Ml+s 0.00 (180.00  -9.32)
    3   Mo  MulP 6.60 6.60 sum 13.21 diff  0.00 (180.00 143.59)  Ml 0.00 (180.00   0.00)  Ml+s 0.00 (180.00 143.59)
    4   Mo  MulP 6.30 6.30 sum 12.60 diff  0.00 (180.00   2.16)  Ml 0.00 (  0.00   0.00)  Ml+s 0.00 (180.00   2.16)
    5   Mo  MulP 6.55 6.55 sum 13.10 diff  0.00 (180.00 -77.78)  Ml 0.00 (  0.00   0.00)  Ml+s 0.00 (180.00 -77.58)
    6   Mo  MulP 6.60 6.60 sum 13.21 diff  0.00 (180.00  87.74)  Ml 0.00 (180.00   0.00)  Ml+s 0.00 (180.00  87.74)
    7   Mo  MulP 6.30 6.30 sum 12.60 diff  0.00 (180.00   7.84)  Ml 0.00 (  0.00   0.00)  Ml+s 0.00 (180.00   7.84)
    8   Mo  MulP 6.55 6.55 sum 13.10 diff  0.00 (180.00 -77.20)  Ml 0.00 (  0.00   0.00)  Ml+s 0.00 (180.00 -75.71)
    9   Mo  MulP 6.60 6.60 sum 13.21 diff  0.00 (180.00 -15.32)  Ml 0.00 (180.00   0.00)  Ml+s 0.00 (180.00 -15.32)
   10   Mo  MulP 6.30 6.30 sum 12.60 diff  0.00 (180.00   0.39)  Ml 0.00 (  0.00   0.00)  Ml+s 0.00 (180.00   0.39)
   11   Mo  MulP 6.55 6.55 sum 13.10 diff  0.00 (180.00 153.55)  Ml 0.00 (  0.00   0.00)  Ml+s 0.00 (180.00 153.39)
   12   Mo  MulP 6.60 6.60 sum 13.21 diff  0.00 (180.00 239.41)  Ml 0.00 (180.00   0.00)  Ml+s 0.00 (180.00 239.41)
   13   Se  MulP 3.29 3.29 sum  6.58 diff  0.00 ( 90.00 175.40)  Ml 0.00 ( 84.73 265.19)  Ml+s 0.00 ( 90.00 175.40)
   14   Se  MulP 3.27 3.27 sum  6.53 diff  0.00 ( 90.00 264.62)  Ml 0.00 ( 83.97 -72.00)  Ml+s 0.00 ( 90.00 264.62)
   15   Se  MulP 3.22 3.21 sum  6.43 diff  0.00 ( 90.00  36.06)  Ml 0.00 ( 97.04 -74.71)  Ml+s 0.00 ( 90.00  36.06)
   16   Se  MulP 3.29 3.29 sum  6.58 diff  0.00 ( 90.00 175.40)  Ml 0.00 ( 84.73 265.19)  Ml+s 0.00 ( 90.00 175.40)
   17   Se  MulP 3.27 3.27 sum  6.53 diff  0.00 ( 90.00 264.62)  Ml 0.00 ( 83.97 -72.00)  Ml+s 0.00 ( 90.00 264.62)
   18   Se  MulP 3.22 3.21 sum  6.43 diff  0.00 ( 90.00  36.06)  Ml 0.00 ( 97.04 -74.71)  Ml+s 0.00 ( 90.00  36.06)
   19   Se  MulP 3.29 3.29 sum  6.58 diff  0.00 ( 90.00 175.40)  Ml 0.00 ( 84.73 265.19)  Ml+s 0.00 ( 90.00 175.40)
   20   Se  MulP 3.27 3.27 sum  6.53 diff  0.00 ( 90.00 264.62)  Ml 0.00 ( 83.97 -72.00)  Ml+s 0.00 ( 90.00 264.62)
     ..........
     ......

 Sum of MulP: up   =   156.00760 down          =   155.99240
              total=   312.00000 ideal(neutral)=   312.00000
<DFT>  Total Spin Moment    (muB)  0.000000642   Angles  179.999994877    40.715386045
<DFT>  Total Orbital Moment (muB)  0.000000229   Angles  179.999997909     0.000000000
<DFT>  Total Moment         (muB)  0.000000871   Angles  179.999995817    35.837133304
<DFT>  Mixing_weight= 0.129821060102
<DFT>  Uele   =  -44.966312801402  dUele     =   0.000000000010
<DFT>  NormRD =    0.000000000003  Criterion =   0.000000000001

******************* MD= 1  SCF=76 *******************
<Poisson>  Poisson's equation using FFT...
<Set_Hamiltonian>  Hamiltonian matrix for VNA+dVH+Vxc...
<Band>  Solving the eigenvalue problem...
 KGrids1:  -0.45000  -0.35000  -0.25000  -0.15000  -0.05000   0.05000   0.15000   0.25000   0.35000   0.45000 
 KGrids2:  -0.45000  -0.35000  -0.25000  -0.15000  -0.05000   0.05000   0.15000   0.25000   0.35000   0.45000 
 KGrids3:   0.00000 
<Band_DFT>  Eigen, time=28.046689
<Band_DFT>  DM, time=50.145471
    1   Mo  MulP 6.30 6.30 sum 12.60 diff  0.00 (180.00   3.29)  Ml 0.00 (  0.00   0.00)  Ml+s 0.00 (180.00   3.28)
    2   Mo  MulP 6.55 6.55 sum 13.10 diff  0.00 (180.00  -8.94)  Ml 0.00 (  0.00   0.00)  Ml+s 0.00 (180.00  -8.89)
    3   Mo  MulP 6.60 6.60 sum 13.21 diff  0.00 (180.00 141.82)  Ml 0.00 (180.00   0.00)  Ml+s 0.00 (180.00 141.82)
    4   Mo  MulP 6.30 6.30 sum 12.60 diff  0.00 (180.00   3.59)  Ml 0.00 (  0.00   0.00)  Ml+s 0.00 (180.00   3.58)
    5   Mo  MulP 6.55 6.55 sum 13.10 diff  0.00 (180.00 -80.64)  Ml 0.00 (  0.00   0.00)  Ml+s 0.00 (180.00 -80.36)
    6   Mo  MulP 6.60 6.60 sum 13.21 diff  0.00 (180.00  86.54)  Ml 0.00 (180.00   0.00)  Ml+s 0.00 (180.00  86.54)
    7   Mo  MulP 6.30 6.30 sum 12.60 diff  0.00 (180.00   6.11)  Ml 0.00 (  0.00   0.00)  Ml+s 0.00 (180.00   6.11)
    8   Mo  MulP 6.55 6.55 sum 13.10 diff  0.00 (180.00 -68.89)  Ml 0.00 (  0.00   0.00)  Ml+s 0.00 (180.00 -67.63)
    9   Mo  MulP 6.60 6.60 sum 13.21 diff  0.00 (180.00 -18.15)  Ml 0.00 (180.00   0.00)  Ml+s 0.00 (180.00 -18.15)
   10   Mo  MulP 6.30 6.30 sum 12.60 diff  0.00 (180.00 179.73)  Ml 0.00 (  0.00   0.00)  Ml+s 0.00 (180.00 179.73)
   11   Mo  MulP 6.55 6.55 sum 13.10 diff  0.00 (180.00 155.11)  Ml 0.00 (  0.00   0.00)  Ml+s 0.00 (180.00 155.03)
   12   Mo  MulP 6.60 6.60 sum 13.21 diff  0.00 (180.00 240.29)  Ml 0.00 (180.00   0.00)  Ml+s 0.00 (180.00 240.29)
   13   Se  MulP 3.29 3.29 sum  6.58 diff  0.00 ( 90.00 175.40)  Ml 0.00 ( 84.73 265.19)  Ml+s 0.00 ( 90.00 175.40)
   14   Se  MulP 3.27 3.27 sum  6.53 diff  0.00 ( 90.00 264.62)  Ml 0.00 ( 83.97 -72.00)  Ml+s 0.00 ( 90.00 264.62)
   15   Se  MulP 3.22 3.21 sum  6.43 diff  0.00 ( 90.00  36.06)  Ml 0.00 ( 97.04 -74.71)  Ml+s 0.00 ( 90.00  36.06)
   16   Se  MulP 3.29 3.29 sum  6.58 diff  0.00 ( 90.00 175.40)  Ml 0.00 ( 84.73 265.19)  Ml+s 0.00 ( 90.00 175.40)
   17   Se  MulP 3.27 3.27 sum  6.53 diff  0.00 ( 90.00 264.62)  Ml 0.00 ( 83.97 -72.00)  Ml+s 0.00 ( 90.00 264.62)
   18   Se  MulP 3.22 3.21 sum  6.43 diff  0.00 ( 90.00  36.06)  Ml 0.00 ( 97.04 -74.71)  Ml+s 0.00 ( 90.00  36.06)
   19   Se  MulP 3.29 3.29 sum  6.58 diff  0.00 ( 90.00 175.40)  Ml 0.00 ( 84.73 265.19)  Ml+s 0.00 ( 90.00 175.40)
   20   Se  MulP 3.27 3.27 sum  6.53 diff  0.00 ( 90.00 264.62)  Ml 0.00 ( 83.97 -72.00)  Ml+s 0.00 ( 90.00 264.62)
     ..........
     ......

 Sum of MulP: up   =   156.00760 down          =   155.99240
              total=   312.00000 ideal(neutral)=   312.00000
<DFT>  Total Spin Moment    (muB)  0.000000642   Angles  179.999989649    19.994193702
<DFT>  Total Orbital Moment (muB)  0.000000229   Angles  179.999998292     0.000000000
<DFT>  Total Moment         (muB)  0.000000871   Angles  179.999991946    18.904672708
<DFT>  Mixing_weight= 0.129821060102
<DFT>  Uele   =  -44.966312801402  dUele     =   0.000000000000
<DFT>  NormRD =    0.000000000004  Criterion =   0.000000000001
Band_DFT_kpath start
kpath
1 ( 0.000000000000000 -0.500000000000000  0.000000000000000)->( 0.000000000000000  0.000000000000000  0.000000000000000)
2 ( 0.000000000000000  0.000000000000000  0.000000000000000)->( 0.000000000000000  0.500000000000000  0.000000000000000)
<MD= 1>  Force calculation
  Force calculation #1
  Force calculation #2
  Force calculation #3
  Force calculation #4
  Force calculation #5
<MD= 1>  Total Energy
  Force calculation #6
  Force calculation #7

*******************************************************
                  Dipole moment (Debye)                 
*******************************************************

 Absolute D     2809.86516628

                      Dx                Dy                Dz
 Total          -1343.08996921    -2356.50121244     -733.72585007
 Core           24516.76569915    38278.44003050    19760.51200527
 Electron      -25859.85566837   -40634.94124294   -20494.23785534
 Back ground       -0.00000000       -0.00000000       -0.00000000

*******************************************************
                Total Energy (Hartree) at MD = 1        
*******************************************************

  Uele  =     -44.966312801402

  Ukin  =     319.189778842189
  UH0   =   -9349.013893369556
  UH1   =       3.576592523086
  Una   =    -447.537517078754
  Unl   =      78.573946493416
  Uxc0  =     -98.371240672722
  Uxc1  =     -98.371240406697
  Ucore =    8500.372092702644
  Uhub  =       0.000000000000
  Ucs   =       0.000000000000
  Uzs   =       0.000000000000
  Uzo   =       0.000000000000
  Uef   =       0.000000000000
  UvdW  =       0.000000000000
  Uch   =       0.000000000000
  Utot  =   -1091.581480966394

  Note:

  Utot = Ukin+UH0+UH1+Una+Unl+Uxc0+Uxc1+Ucore+Uhub+Ucs+Uzs+Uzo+Uef+UvdW+Uch

  Uele:   band energy
  Ukin:   kinetic energy
  UH0:    electric part of screened Coulomb energy
  UH1:    difference electron-electron Coulomb energy
  Una:    neutral atom potential energy
  Unl:    non-local potential energy
  Uxc0:   exchange-correlation energy for alpha spin
  Uxc1:   exchange-correlation energy for beta spin
  Ucore:  core-core Coulomb energy
  Uhub:   LDA+U energy
  Ucs:    constraint energy for spin orientation
  Uzs:    Zeeman term for spin magnetic moment
  Uzo:    Zeeman term for orbital magnetic moment
  Uef:    electric energy by electric field
  UvdW:   semi-empirical vdW energy 
  Uch:    penalty term to create a core hole

  (see also PRB 72, 045121(2005) for the energy contributions)


*******************************************************
           Computational times (s) at MD = 1            
*******************************************************

  DFT in total      = 6103.65278

  Set_OLP_Kin       =    1.02157
  Set_Nonlocal      =    6.18000
  Set_ProExpn_VNA   =    4.48235
  Set_Hamiltonian   =   25.20946
  Poisson           =    0.08707
  diagonalization   = 5966.53055
  Mixing_DM         =   18.81293
  Force             =   10.28623
  Total_Energy      =    1.39808
  Set_Aden_Grid     =    0.22752
  Set_Orbitals_Grid =    0.06113
  Set_Density_Grid  =   10.89780
  RestartFileDFT    =    2.63225
  Mulliken_Charge   =    0.11298
  FFT(2D)_Density   =    0.00000

*******************************************************
             MD or geometry opt. at MD = 1              
*******************************************************


outputting data on grids to files...

Save the scfout file (./MoSe2.scfout)
Total_Num_Electrons=312.000000000000

***********************************************************
***********************************************************
               Computational Time (second)                 
***********************************************************
***********************************************************

                               Min_ID   Min_Time       Max_ID   Max_Time
   Total Computational Time =    18     6112.541          0     6114.292
   readfile                 =    17        2.690          0        2.691
   truncation               =     0        0.000          0        0.000
   MD_pac                   =     0        0.050          3        0.087
   OutData                  =    12        5.140          0        5.595
   DFT                      =    11     6103.527          6     6103.693

*** In DFT ***

   Set_OLP_Kin              =    12        0.810          5        1.730
   Set_Nonlocal             =     5        5.353          6        6.435
   Set_ProExpn_VNA          =    12        4.381         22        4.682
   Set_Hamiltonian          =     7       25.209          2       25.211
   Poisson                  =     0        0.087         12        0.087
   Diagonalization          =    22     5960.324          0     5966.531
   Mixing_DM                =    22       18.813         12       18.813
   Force                    =     3       10.286         14       10.286
   Total_Energy             =    18        1.393          0        1.398
   Set_Aden_Grid            =    22        0.029         12        0.329
   Set_Orbitals_Grid        =    18        0.049          1        0.119
   Set_Density_Grid         =     0       10.898         17       11.025
   RestartFileDFT           =     7        2.329         13        2.746
   Mulliken_Charge          =     2        0.109          0        0.113
   FFT(2D)_Density          =     0        0.000          0        0.000
   Others                   =     0       55.713          7       62.031

The calculation was normally finished.
